NAME,SMILES,Tm (K)
2-nitroaniline,Nc1ccccc1[N+]([O-])=O,344.4
2-nonadecanone,CCCCCCCCCCCCCCCCCC(C)=O,328.0
2-n-propyl-5-(4-bromophenyl)thiophene,CCCc1sc(cc1)c2ccc(Br)cc2,360.4
2-octanone,CCCCCCC(C)=O,252.9
2-pentadecanone,CCCCCCCCCCCCCC(C)=O,312.2
2-pentanol,CCCC(C)O,200.0
2-pentanone,CCCC(C)=O,196.3
2-phenylbenzimidazole,[nH]1c2ccccc2nc1c3ccccc3,572.2
2-piperadone,C1CNC(=O)CN1,342.3
2-propanethiol,CC(C)S,142.6
2-propanol,CC(C)O,185.2
2-pyrrolidone,O=C1CCCN1,299.0
"2-sec-butyl-4,6-dinitrophenol",CCC(C)c1cc(cc(c1O)[N+]([O-])=O)[N+]([O-])=O,313.7
"2-sec-butyl-4,6-dinitrophenyl 3-methylcrotonate",CCC(C)c1cc(cc(c1OC(=O)C=C(C)C)[N+]([O-])=O)[N+]([O-])=O,341.3
2-tetradecanone,CCCCCCCCCCCCC(C)=O,306.7
2-undecanone,CCCCCCCCCC(C)=O,290.5
"3-(1-methylethyl)-(1H)-2,1,3-benzothiadiazin-4(3H)-one 2,2-dioxide",CC(C)N1C(=O)c2ccccc2N[S]1(=O)=O,412.5
"3-(3,4-dichlorophenyl)-1,1-dimethylurea",CN(C)C(=O)Nc1ccc(Cl)c(Cl)c1,429.7
"3-(4-chlorophenyl)-1,1-dimethylurea",CN(C)C(=O)Nc1ccc(Cl)cc1,447.6
"3-(5-(1,1-dimethylethyl)-1,3,4-thiadiazol-2-yl)-4-hydroxy-1-methyl-2-imidazolidinone",CN1CC(O)N(C1=O)c2sc(nn2)C(C)(C)C,408.9
"3(n-decylamino)-1,2-propanediol",CCCCCCCCCCNCC(O)CO,346.6
"3(n-decyloxy)-1,2-propanediol",CCCCCCCCCCOCC(O)CO,311.0
"3(n-decylthio)-1,2-propanediol",CCCCCCCCCCSCC(O)CO,311.9
"3(n-dodecylamino)-1,2-propanediol",CCCCCCCCCCCCNCC(O)CO,351.9
"3(n-dodecyloxy)-1,2-propanediol",CCCCCCCCCCCCOCC(O)CO,323.0
"3(n-dodecylthio)-1,2-propanediol",CCCCCCCCCCCCSCC(O)CO,325.5
"3(n-heptylamino)-1,2-propanediol",CCCCCCCNCC(O)CO,324.9
"3(n-heptyloxy)-1,2-propanediol",CCCCCCCOCC(O)CO,246.2
"3(n-heptylthio)-1,2-propanediol",CCCCCCCSCC(O)CO,292.5
"3(n-hexyloxy)-1,2-propanediol",CCCCCCOCC(O)CO,272.9
"3(n-hexylthio)-1,2-propanediol",CCCCCCSCC(O)CO,290.8
"3(n-nonylamino)-1,2-propanediol",CCCCCCCCCNCC(O)CO,343.2
"3-(n-nonyloxy)-1,2-propanediol",CCCCCCCCCOCC(O)CO,297.2
"3(n-octylamino)-1,2-propanediol",CCCCCCCCNCC(O)CO,335.9
"3(n-octyloxy)-1,2-propanediol",CCCCCCCCOCC(O)CO,296.1
"3(n-octylthio)-1,2-propanediol",CCCCCCCCSCC(O)CO,306.5
"3(n-tetradecylamino)-1,2-propanediol",CCCCCCCCCCCCCCNCC(O)CO,356.2
"3(n-tetradecyloxy)-1,2-propanediol",CCCCCCCCCCCCCCOCC(O)CO,331.3
"3(n-tetradecylthio)-1,2-propanediol",CCCCCCCCCCCCCCSCC(O)CO,336.4
"3(n-tridecylamino)-1,2-propanediol",CCCCCCCCCCCCCNCC(O)CO,354.9
"3(n-tridecyloxy)-1,2-propanediol",CCCCCCCCCCCCCOCC(O)CO,324.2
"3(n-tridecylthio)-1,2-propanediol",CCCCCCCCCCCCCSCC(O)CO,330.6
"3(n-undecylamino)-1,2-propanediol",CCCCCCCCCCCNCC(O)CO,348.8
"3(n-undecyloxy)-1,2-propanediol",CCCCCCCCCCCOCC(O)CO,311.7
"3(n-undecylthio)-1,2-propanediol",CCCCCCCCCCCSCC(O)CO,317.4
"3,3-bis-(chloromethyl)oxacyclobutane",ClCC1(CCl)COC1,292.2
"3,3-diethylpentane",CCC(CC)(CC)CC,240.1
"3,3-dimethyl-1-(methylthio)-2-butanone O-methylcarbamoyloxime",CNC(=O)ON=C(CSC)C(C)(C)C,330.2
"3,3-dimethyl-1-butene",CC(C)(C)C=C,158.4
"3,3-dimethyl-2-butanone",CC(=O)C(C)(C)C,221.7
"3,3-dimethylpentane",CCC(C)(C)CC,138.2
"3,3-dimethylpentanedioic anhydride",CC1(C)CC(=O)OC(=O)C1,396.2
"3,4-benzophenanthrene",c1ccc2c(c1)ccc3ccc4ccccc4c23,334.7
"3,4-benzopyrene",c1ccc2c(c1)cc3ccc4cccc5ccc2c3c45,454.2
"3,4-dichloro-2-methoxybenzoic acid",COc1c(Cl)c(Cl)ccc1C(O)=O,412.5
"3,4-dichlorophenol",Oc1ccc(Cl)c(Cl)c1,341.0
"3',4'-dichloropropionanilide",CCC(=O)Nc1ccc(Cl)c(Cl)c1,363.7
"3,4-diethyl-3,4-bis(4-tert-butylphenyl)hexane",CCC(CC)(c1ccc(cc1)C(C)(C)C)C(CC)(CC)c2ccc(cc2)C(C)(C)C,400.0
"3,4-dimethylphenol",Cc1ccc(O)cc1C,334.0
"3,4-dimethylphenyl methylcarbamate",CNC(=O)Oc1ccc(C)c(C)c1,350.8
"3,4-dimethylpyridine",Cc1ccncc1C,262.7
"3,4-dinitrophenol",Oc1ccc(c(c1)[N+]([O-])=O)[N+]([O-])=O,407.0
"3,4-dinitrotoluene",Cc1ccc(c(c1)[N+]([O-])=O)[N+]([O-])=O,329.5
"3,5,6-trichloro-2-pyridinol",Oc1nc(Cl)c(Cl)cc1Cl,448.1
"3,5,6-trichloro-2-pyridinyloxyacetic acid",OC(=O)COc1nc(Cl)c(Cl)cc1Cl,423.3
"3,5-dibromo-4-hydroxybenzonitrile",Oc1c(Br)cc(cc1Br)C#N,464.0
"3,5-dichlorobenzoic acid",OC(=O)c1cc(Cl)cc(Cl)c1,459.3
"3,5-dichloro-N-(1,1-dimethyl-2-propynyl)benzamide",CC(C)(NC(=O)c1cc(Cl)cc(Cl)c1)C#C,428.4
"3,5-dichlorophenol",Oc1cc(Cl)cc(Cl)c1,341.0
"3,5-diisopropylphenol",CC(C)c1cc(O)cc(c1)C(C)C,326.3
"3,5-dimethyl-4-(dimethylamino)phenyl methylcarbamate",CNC(=O)Oc1cc(C)c(N(C)C)c(C)c1,361.7
"3,5-dimethylbenzoic acid",Cc1cc(C)cc(c1)C(O)=O,442.9
"3,5-dimethylphenol",Cc1cc(C)cc(O)c1,336.8
"3,5-dimethylpyridine",Cc1cncc(C)c1,266.9
"3,5-dinitrobenzoic acid",OC(=O)c1cc(cc(c1)[N+]([O-])=O)[N+]([O-])=O,480.4
"3,6-dichloro-2-methoxybenzoic acid",COc1c(Cl)ccc(Cl)c1C(O)=O,386.7
"3,6-dichloro-5-hydroxy-2-methoxybenzoic acid",COc1c(Cl)cc(O)c(Cl)c1C(O)=O,409.8
"3-amino-2,5-dichlorobenzoic acid",Nc1cc(Cl)cc(C(O)=O)c1Cl,475.6
3-aminoacetophenone,CC(=O)c1cccc(N)c1,371.2
3-aminobenzoic acid,Nc1cccc(c1)C(O)=O,452.9
3-bromopentane,CCC(Br)CC,167.3
"3-chloro-1,1,1,3,3-pentafluoropropane",FC(F)(F)CC(F)(F)Cl,165.4
3-chlorobenzoic acid,OC(=O)c1cccc(Cl)c1,427.4
3-chlorophenol,Oc1cccc(Cl)c1,305.8
3-deoxy-3-fluoro-D-glucopyranose,OC[C@H]1OC(O)[C@H](O)[C@@H](F)[C@@H]1O,378.2
3-deoxy-D-glucopyranose,OC[C@H]1OC(O)[C@H](O)C[C@@H]1O,387.2
"3-diphenylmethyl-2,4-pentanedione",CC(=O)C(C(c1ccccc1)c2ccccc2)C(C)=O,387.2
"3-ethyl-3-diphenylmethyl-2,4-pentanedione",CCC(C(c1ccccc1)c2ccccc2)(C(C)=O)C(C)=O,388.2
3-ethylheptane,CCCCC(CC)CC,158.0
3-ethylpentane,CCC(CC)CC,154.6
3-fluorotoluene,Cc1cccc(F)c1,184.0
3-heptanone,CCCCC(=O)CC,236.0
3-hexanone,CCCC(=O)CC,217.7
3-hydroxybenzoic acid,OC(=O)c1cccc(O)c1,475.1
3-iodobenzoic acid,OC(=O)c1cccc(I)c1,460.4
"3-methyl-1,2-butadiene",C[C](C)=[C]=[CH2],159.5
3-methyl-1-butanethiol,CC(C)CCS,139.6
3-methyl-1-butene,CC(C)C=C,104.7
3-methyl-1-phenyl-1H-pyrazol-5-yl dimethylcarbamate,CN(C)C(=O)Oc1cc(C)nn1c2ccccc2,324.3
3-methyl-2-butanethiol,CC(C)C(C)S,146.1
"3-methyl-3-diphenylmethyl-2,4-pentanedione",CC(=O)C(C)(C(c1ccccc1)c2ccccc2)C(C)=O,352.2
3-methylheptane,CCCCC(C)CC,152.6
3-methylpentane,CCC(C)CC,110.3
3-methylpyridine,Cc1cccnc1,255.0
3-methylthiophene,Cc1cscc1,204.2
3-nitroaniline,Nc1cccc(c1)[N+]([O-])=O,387.2
3-nitrophthalic anhydride,[O-][N+](=O)c1cccc2C(=O)OC(=O)c12,436.2
3-nitrotoluene,Cc1cccc(c1)[N+]([O-])=O,288.7
3-pentanol,CCC(O)CC,204.2
3-pentanone,CCC(=O)CC,234.2
"3-propyl-3-diphenylmethyl-2,4-pentanedione",CCCC(C(c1ccccc1)c2ccccc2)(C(C)=O)C(C)=O,349.2
"4-(1,1-dimethylethyl)-n-(1-methylpropyl)-2,6-dinitrobenzeneamine",CCC(C)Nc1c(cc(cc1[N+]([O-])=O)C(C)(C)C)[N+]([O-])=O,338.8
"4-(2,4,5-trichlorophenoxy)butanoic acid",OC(=O)CCCOc1cc(Cl)c(Cl)cc1Cl,386.7
"4-(2,4-dichlorophenoxy)butyric acid",OC(=O)CCCOc1ccc(Cl)cc1Cl,391.4
4-(2-chlorophenylhydrazone)-3-methyl-5-isoxazolone,CC\1=NOC(=O)C1=N\Nc2ccccc2Cl,440.4
4-(4-chloro-2-methylphenoxy)butanoic acid,Cc1cc(Cl)ccc1OCCCC(O)=O,373.4
4-(4-nitrophenylazo)aniline,Nc1ccc(cc1)N=Nc2ccc(cc2)[N+]([O-])=O,488.2
"4-(dipropylamino)-N,N-dimethyl-3,5-dinitrobenzenesulfonamide",CCCN(CCC)c1c(cc(cc1[N+]([O-])=O)[S](=O)(=O)N(C)C)[N+]([O-])=O,413.6
"4-(N,N-dipropylamino)-3,5-dinitrobenzenesulphonamide",CCCN(CCC)c1c(cc(cc1[N+]([O-])=O)[S](N)(=O)=O)[N+]([O-])=O,414.8
"4,4'-di-(2-methoxyethoxy)biphenyl",COCCOc1ccc(cc1)c2ccc(OCCOC)cc2,412.4
"4,4'-didecanoyloxydiphenyldiacetylene",CCCCCCCCCC(=O)Oc1ccc(cc1)C#CC#Cc2ccc(OC(=O)CCCCCCCCC)cc2,403.0
"4,4'-didodecanoyloxydiphenyldiacetylene",CCCCCCCCCCCC(=O)Oc1ccc(cc1)C#CC#Cc2ccc(OC(=O)CCCCCCCCCCC)cc2,401.0
"4,4'-dinitrodiphenyl ether",[O-][N+](=O)c1ccc(Oc2ccc(cc2)[N+]([O-])=O)cc1,418.2
"4,4'-diundecanoyloxydiphenyldiacetylene",CCCCCCCCCCC(=O)Oc1ccc(cc1)C#CC#Cc2ccc(OC(=O)CCCCCCCCCC)cc2,399.0
"4,6-dichloro-N-(2-chlorophenyl)-1,3,5-triazin-2-amine",Clc1nc(Cl)nc(Nc2ccccc2Cl)n1,431.0
4-acetoxybenzoic acid,CC(=O)Oc1ccc(cc1)C(O)=O,467.2
"4-amino-6-(1,1-dimethylethyl)-3-(methylthio)1,2,4-triazin-5(4H)-one",CSC1=NN=C(C(=O)N1N)C(C)(C)C,399.4
4-aminoacetophenone,CC(=O)c1ccc(N)cc1,379.2
4-aminobenzoic acid,Nc1ccc(cc1)C(O)=O,461.4
4-amino-N-(6-methoxy-3-pyridazinyl)benzenesulfonamide,COc1ccc(N[S](=O)(=O)c2ccc(N)cc2)nn1,453.4
4-aminopyridine,Nc1ccncc1,429.9
4-benzoyl-1-naphthol,Oc1ccc(C(=O)c2ccccc2)c3ccccc13,440.6
"4-bromo-2,5-dichloroaniline",Nc1cc(Cl)c(Br)cc1Cl,343.4
"4-bromo-2,5-dichlorophenol",Oc1cc(Cl)c(Br)cc1Cl,343.4
4-bromophenol,Oc1ccc(Br)cc1,336.0
4-chloroazobenzene,Clc1ccc(cc1)N=Nc2ccccc2,361.2
4-chlorobenzoic acid,OC(=O)c1ccc(Cl)cc1,512.9
4-chlorobiphenyl,Clc1ccc(cc1)c2ccccc2,348.6
4-chlorobut-2-ynyl 3-chlorophenylcarbamate,ClCC#CCOC(=O)Nc1cccc(Cl)c1,344.1
4-chlorophenol,Oc1ccc(Cl)cc1,315.9
4-chlorophenoxyacetic acid,OC(=O)COc1ccc(Cl)cc1,429.6
4-chlorophenyl 4-chlorobenzenesulfonate,Clc1ccc(O[S](=O)(=O)c2ccc(Cl)cc2)cc1,360.0
4-chlorophenylbenzenesulfonate,[O-][S](=O)(=O)c1ccccc1c2ccc(Cl)cc2,332.2
4-ethoxybenzoic acid,CCOc1ccc(cc1)C(O)=O,472.8
4-ethoxyisonitrosoacetanilide,CCOc1ccc(NC(=O)/C=N/O)cc1,490.0
4-ethoxyphenylacetic acid,CCOc1ccc(CC(O)=O)cc1,360.2
4-ethylbenzoic acid,CCc1ccc(cc1)C(O)=O,386.2
4-ethynyl-1-[(4-ethynylphenyl)methoxy]benzene,C#Cc1ccc(COc2ccc(cc2)C#C)cc1,371.2
4-fluorotoluene,Cc1ccc(F)cc1,216.5
4-heptanone,CCCC(=O)CCC,240.2
4-hexylresorcinol,CCCCCCc1ccc(O)cc1O,341.5
"4-hydroxy-3,5-diiodobenzonitrile",Oc1c(I)cc(cc1I)C#N,482.9
4-hydroxyazobenzene,Oc1ccc(cc1)N=Nc2ccccc2,425.2
4-hydroxybenzoic acid,OC(=O)c1ccc(O)cc1,488.1
4-hydroxyphenylacetic acid,OC(=O)Cc1ccc(O)cc1,423.6
4-hydroxyphenylpropionic acid,CC(C(O)=O)c1ccc(O)cc1,402.5
4-iodobenzoic acid,OC(=O)c1ccc(I)cc1,543.8
4-methoxybenzoic acid,COc1ccc(cc1)C(O)=O,457.8
4-methoxyphenol,COc1ccc(O)cc1,328.4
4-methoxyphenylacetic acid,COc1ccc(CC(O)=O)cc1,358.1
4-methoxyphenylbutyric acid,CCC(C(O)=O)c1ccc(OC)cc1,330.9
4-methoxyphenylpropionic acid,COc1ccc(cc1)C(C)C(O)=O,376.9
4-methyl-7-aminocoumarin,CC1=CC(=O)Oc2cc(N)ccc12,499.9
4-methyl-7-diethylaminocoumarin,CCN(CC)c1ccc2C(=CC(=O)Oc2c1)C,343.8
4-methyl-7-dimethylaminocoumarin,CN(C)c1ccc2C(=CC(=O)Oc2c1)C,416.1
4-methyl-7-hydroxycoumarin,CC1=CC(=O)Oc2cc(O)ccc12,460.7
4-methylcyclohex-1-ene,CC1CCC=CC1,153.6
4-methylheptane,CCCC(C)CCC,152.2
4-methylpent-1-ene,CC(C)CC=C,118.9
4-methylphenanthrene,Cc1cccc2ccc3ccccc3c12,324.9
"4-methylsulphonyl-2,6-dinitro-N,N-dipropylaniline",CCCN(CCC)c1c(cc(cc1[N+]([O-])=O)[S](C)(=O)=O)[N+]([O-])=O,424.3
4-methylthiazole,Cc1cscn1,229.1
"4-methylthio-3,5-xylyl methylcarbamate",CNC(=O)Oc1cc(C)c(SC)c(C)c1,393.8
4-n-butoxybenzoic acid,CCCCOc1ccc(cc1)C(O)=O,432.2
4-n-hexylbenzoic acid,CCCCCCc1ccc(cc1)C(O)=O,380.0
4-nitro-5-methylphenol,Cc1cc(O)ccc1[N+]([O-])=O,401.0
4-nitroaniline,Nc1ccc(cc1)[N+]([O-])=O,420.2
4-nitrophthalic anhydride,[O-][N+](=O)c1ccc2C(=O)OC(=O)c2c1,388.2
4-nitrotoluene,Cc1ccc(cc1)[N+]([O-])=O,324.8
"4-n-octyloxy-N-(3,5-dimethoxybenzylidene)aniline",CCCCCCCCOc1ccc(cc1)N=Cc2cc(OC)cc(OC)c2,316.3
"4-n-octyloxy-N-(3,5-dimethylbenzylidene)aniline",CCCCCCCCOc1ccc(cc1)N=Cc2cc(C)cc(C)c2,324.7
4-n-octyloxy-N-(4-methoxybenzylidene)aniline,CCCCCCCCOc1ccc(cc1)N=Cc2ccc(OC)cc2,377.3
4-n-pentoxybenzoic acid,CCCCCOc1ccc(cc1)C(O)=O,422.2
4-n-pentylbenzoic acid,CCCCCc1ccc(cc1)C(O)=O,395.0
4-n-propoxybenzoic acid,CCCOc1ccc(cc1)C(O)=O,426.7
4-octadecynoic acid,CCCCCCCCCCCCCC#CCCC(O)=O,348.0
4-oxaheptane,CCCOCCC,158.4
4-propylbenzoic acid,CCCc1ccc(cc1)C(O)=O,422.0
4'-propylbiphenyl-4-carbonitrile,CCCc1ccc(cc1)c2ccc(cc2)C#N,338.8
4-tert-butylbenzoic acid,CC(C)(C)c1ccc(cc1)C(O)=O,440.0
4-tert-butylphenol,CC(C)(C)c1ccc(O)cc1,373.2
"5,5-bis(3,3-dimethylbutyl)2,2,8,8-tetramethylnonane",CC(C)(C)CCC(CCC(C)(C)C)(CCC(C)(C)C)CCC(C)(C)C,472.7
"5,5-dimethylperhydro-1,3-oxazine-2-one",CC1(C)CNC(=O)OC1,440.1
"5,6,7,8-tetrahydroquinoline",C1CCc2ncccc2C1,222.7
"5,6-dibutyl-5,6-bis(4-tert-butylphenyl)decane",CCCCC(CCCC)(c1ccc(cc1)C(C)(C)C)C(CCCC)(CCCC)c2ccc(cc2)C(C)(C)C,386.0
5-[2-chloro-4-(trifluoromethyl)phenoxy]-2-nitrobenzoic acid,OC(=O)c1cc(Oc2ccc(cc2Cl)C(F)(F)F)ccc1[N+]([O-])=O,436.6
5-amino-4-chloro-2-phenyl-3(2H)-pyridazinone,NC1=C(Cl)C(=O)N(N=C1)c2ccccc2,479.2
"5-bromo-6-methyl-3-(1-methylpropyl)-2,4(1H,3H)-pyrimidinedione",CCC(C)N1C(=O)NC(=C(Br)C1=O)C,428.3
5-butyl-2-ethylamino-6-methylpyrimidin-4-ol,CCCCc1c(C)nc(NCC)nc1O,432.5
"5-chloro-3-(1,1-dimethylethyl)-6-methyl-2,4(1H,3H)-pyrimidinedione",CC1=C(Cl)C(=O)N(C(=O)N1)C(C)(C)C,448.0
5-isopropyl-m-tolyl methylcarbamate,CNC(=O)Oc1cc(C)cc(c1)C(C)C,361.3
"5-methyl-1,2,4-triazolo[3,4-b]benzothiazole",Cc1cccc2sc3nncn3c12,460.2
5-methylnonane,CCCCC(C)CCCC,186.7
5-methyltetrazole,Cc1[nH]nnn1,418.0
5-methylthiazole,Cc1scnc1,232.8
5-nonanone,CCCCC(=O)CCCC,223.2
5-octadecynoic acid,CCCCCCCCCCCCC#CCCCC(O)=O,325.0
6-deoxy-6-fluoro-D-glucopyranose,OC1O[C@H](CF)[C@@H](O)[C@H](O)[C@H]1O,412.2
6-deoxy-D-glucopyranose,C[C@H]1OC(O)[C@H](O)[C@@H](O)[C@@H]1O,409.2
"6-methyl-1,3-dithiolo[4,5-b]quinoxalin-2-one",Cc1ccc2nc3SC(=O)Sc3nc2c1,443.2
6-octadecynoic acid,CCCCCCCCCCCC#CCCCCC(O)=O,324.0
"7,8-benzoquinoline",c1ccc2c(c1)ccc3cccnc23,324.1
7-octadecynoic acid,CCCCCCCCCCC#CCCCCCC(O)=O,322.0
8-octadecynoic acid,CCCCCCCCCC#CCCCCCCC(O)=O,320.0
9-fluorenone,O=C1c2ccccc2c3ccccc13,356.4
9-heptadecanone,CCCCCCCCC(=O)CCCCCCCC,323.9
"9H-pyrido[3,4-b]indole",[nH]1c2ccccc2c3ccncc13,471.5
9-methylfluorene,CC1c2ccccc2c3ccccc13,319.2
9-octadecynoic acid,CCCCCCCCC#CCCCCCCCC(O)=O,319.0
"a,a'-dibromo-m-xylene",C1=CC(=CC(=C1)CBr)CBr,350.2
"a,a'-dibromo-o-xylene",C1=CC=C(C(=C1)CBr)CBr,368.2
"a,a'-dichloro-p-xylene",C1=CC(=CC=C1CCl)CCl,373.2
acebutolol,CCCC(=O)Nc1ccc(OCC(O)CNC(C)C)c(c1)C(C)=O,394.2
acenaphthene,C1Cc2cccc3cccc1c23,366.6
acenaphthylene,c1cc2cccc3C=Cc(c1)c23,362.0
acetaldehyde,CC=O,242.9
acetamide,CC(N)=O,353.0
acetanilide,CC(=O)Nc1ccccc1,387.5
acetohexamide,CC(=O)c1ccc(cc1)[S](=O)(=O)NC(=O)NC2CCCCC2,461.2
acetone,CC(C)=O,176.6
acetonitile,CC#N,229.3
acetylene,C#C,192.4
a-chloroacetic acid,C(C(=O)O)Cl,334.3
a-chloroacetic acid,C(C(=O)O)Cl,334.4
acridine,c1ccc2nc3ccccc3cc2c1,383.2
acrylamide,NC(=O)C=C,358.0
acrylic acid,OC(=O)C=C,285.5
acrylonitrile,C=CC#N,189.6
a-D-glucose,C(C1C(C(C(C(O1)O)O)O)O)O,414.0
adipic acid,OC(=O)CCCCC(O)=O,426.4
Albendazole,CCCSc1ccc2nc(NC(=O)OC)[nH]c2c1,482.2
Aldicarb,CNC(=O)O\N=C\C(C)(C)SC,372.2
Aldoxycarb,CNC(=O)O\N=C\C(C)(C)[S](C)(=O)=O,414.2
a-methylstyrene,CC(=C)C1=CC=CC=C1,250.8
Ametryn,CCNc1nc(NC(C)C)nc(SC)n1,358.2
Aminocarb,CNC(=O)Oc1ccc(N(C)C)c(C)c1,367.2
amobarbital,CCC1(CCC(C)C)C(=O)NC(=O)NC1=O,429.2
a-naphthyl acetate,CC(=O)Oc1cccc2ccccc12,319.2
androstanolone,C[C@]12CC[C@H]3[C@@H](CC[C@H]4CC(=O)CC[C@]34C)[C@@H]1CC[C@@H]2O,454.0
Anilazine,Clc1nc(Cl)nc(Nc2ccccc2Cl)n1,433.2
aniline,Nc1ccccc1,267.1
anisaldazine,COc1ccc(cc1)/C=N/N=C/c2ccc(OC)cc2,442.0
anthracene,c1ccc2cc3ccccc3cc2c1,488.9
anthraquinone,O=C1c2ccccc2C(=O)c3ccccc13,558.0
aprobarbital,CC(C)C1(CC=C)C(=O)NC(=O)NC1=O,414.2
atenolol,CC(C)NCC(O)COc1ccc(CC(N)=O)cc1,420.2
Atrazine,CCNc1nc(Cl)nc(NC(C)C)n1,448.2
azelaic acid,OC(=O)CCCCCCCC(O)=O,380.0
Azimsulfuron,COc1cc(OC)nc(NC(=O)N[S](=O)(=O)c2n(C)ncc2c3nnn(C)n3)n1,443.2
azoxybenzene,[O-][N+](=Nc1ccccc1)c2ccccc2,309.2
azulene,c1ccc2cccc2cc1,373.5
barbital,CCC1(CC)C(=O)NC(=O)NC1=O,462.6
Bendiocarb,CNC(=O)Oc1cccc2OC(C)(C)Oc12,403.2
bendroflumethiazide,N[S](=O)(=O)c1cc2c(NC(Cc3ccccc3)N[S]2(=O)=O)cc1C(F)(F)F,495.2
Benfluralin,CCCCN(CC)c1c(cc(cc1[N+]([O-])=O)C(F)(F)F)[N+]([O-])=O,339.2
benzaldehyde,O=Cc1ccccc1,216.0
benzamide,NC(=O)c1ccccc1,402.3
benzanilide,O=C(Nc1ccccc1)c2ccccc2,436.5
benzene,c1ccccc1,278.7
benzene-hexa-n-hexanoate,CCCCCC(O)=O.CCCCCC(O)=O.CCCCCC(O)=O.CCCCCC(O)=O.CCCCCC(O)=O.CCCCCC(O)=O.c1ccccc1,368.7
benzidine,Nc1ccc(cc1)c2ccc(N)cc2,400.2
benzil,O=C(c1ccccc1)C(=O)c2ccccc2,368.0
benzimidazole,[nH]1cnc2ccccc12,443.2
benzo[c]cinnoline,c1ccc2c(c1)nnc3ccccc23,432.2
benzofluoranthene,c1ccc2c(c1)ccc3c4cccc5cccc(c45)c23,424.0
benzoic acid,OC(=O)c1ccccc1,395.5
benzoic anhydride,O=C(OC(=O)c1ccccc1)c2ccccc2,313.2
benzonitrile,N#Cc1ccccc1,260.3
benzophenone,O=C(c1ccccc1)c2ccccc2,324.2
benzothiazole,s1cnc2ccccc12,275.6
benzothiophene,s1ccc2ccccc12,304.5
benzotrichloride,ClC(Cl)(Cl)c1ccccc1,236.0
benzotrifluoride,FC(F)(F)c1ccccc1,244.0
benzoxazole,o1cnc2ccccc12,302.5
benzthiazide,N[S](=O)(=O)c1cc2c(NC(=N[S]2(=O)=O)CSCc3ccccc3)cc1Cl,508.2
benzyl alcohol,OCc1ccccc1,257.6
benzyl benzoate,O=C(OCc1ccccc1)c2ccccc2,293.1
benzylbromide,BrCc1ccccc1,271.8
benzyliodide,ICc1ccccc1,299.5
benzylmethylsulfone,C[S](=O)(=O)Cc1ccccc1,400.5
betamethasone,C[C@H]1C[C@H]2[C@@H]3CCC4=CC(=O)C=C[C@]4(C)[C@@]3(F)[C@@H](O)C[C@]2(C)[C@@]1(O)C(=O)CO,503.0
betamethasone-17-valerate,CCCCC(=O)OC1(C(CC2C1(CC(C3(C2CCC4=CC(=O)C=CC43C)F)O)C)C)C(=O)CO,456.0
beta-sitosterol,CC[C@H](CC[C@@H](C)[C@H]1CC[C@H]2[C@@H]3CC=C4CC(O)CC[C@]4(C)[C@H]3CC[C@]12C)C(C)C,413.3
betaxolol,CC(C)NCC(O)COc1ccc(CCOCC2CC2)cc1,344.2
biphenyl,c1ccc(cc1)c2ccccc2,341.5
bis(2-cyanoethyl)-N-nitroamine,[O-][N+](=O)N(CCC#N)CCC#N,327.0
bis-(4-aminophenyl)methane,Nc1ccc(Cc2ccc(N)cc2)cc1,363.7
bis(4-chlorophenyl)acetic acid,OC(=O)C(c1ccc(Cl)cc1)c2ccc(Cl)cc2,440.2
"bis-[3,5-di-tert-butyl-4-hydroxybenzyl]sulfide",CC(C)(C)c1cc(CSCc2cc(c(O)c(c2)C(C)(C)C)C(C)(C)C)cc(c1O)C(C)(C)C,417.2
bis-hydroxyethylpiperazine,OCCC1CNCCN1CCO,405.0
bisoprolol,CC(C)NCC(O)COc1ccc(COCCOC(C)C)cc1,373.2
bromobenzene,Brc1ccccc1,242.4
bromocyclohexane,BrC1CCCCC1,216.9
bromomethane,CBr,179.5
bromotrichloromethane,ClC(Cl)(Cl)Br,267.5
butabarbital,CCC(C)C1(CC)C(=O)NC(=O)NC1=O,438.2
Butacarb,CNC(=O)Oc1cc(cc(c1)C(C)(C)C)C(C)(C)C,376.2
butalbital,CC(C)CC1(CC=C)C(=O)NC(=O)NC1=O,412.2
butanal,CCCC=O,176.8
butane,CCCC,134.9
butanoic acid,CCCC(O)=O,264.7
Butocarboxim,CNC(=O)O\N=C(\C)C(C)SC,298.2
Butoxycarboxim,CNC(=O)O\N=C(/C)C(C)[S](C)(=O)=O,360.2
butyl 4-aminobenzoate,CCCCOC(=O)c1ccc(N)cc1,331.1
butyl 9-hydroxy-9H-fluorene-9-carboxylate,CCCCOC(=O)C1(O)c2ccccc2c3ccccc13,343.9
butyl acrylate,CCCCOC(=O)C=C,209.5
butyl alcohol,CCCCO,183.9
Butyl benzyl phthalate,CCCCOC(=O)c1ccccc1C(=O)OCc2ccccc2,238.2
butyl butanoate,CCCCOC(=O)CCC,181.7
butyl ethyl sulfide,CCCCSCC,178.1
butyl octadecanoate,CCCCCCCCCCCCCCCCCC(=O)OCCCC,299.7
caffeine,Cn1cnc2N(C)C(=O)N(C)C(=O)c12,512.0
Carbaryl,CNC(=O)Oc1cccc2ccccc12,418.2
carbazole,[nH]1c2ccccc2c3ccccc13,516.0
Carbendazim,COC(=O)Nc1[nH]c2ccccc2n1,523.2
carbon tetrabromide,BrC(Br)(Br)Br,363.2
carbon tetrachloride,ClC(Cl)(Cl)Cl,249.0
carbon tetrafluoride,FC(F)(F)F,89.6
carbutamide,CCCCNC(=O)N[S](=O)(=O)c1ccc(N)cc1,417.2
carvedilol,COc1ccccc1OCCNCC(O)COc2cccc3[nH]c4ccccc4c23,388.2
chlorbromuron,CON(C)C(=O)Nc1ccc(Br)c(Cl)c1,369.2
Chlorimuron,COC1=CC(=NC(=N1)NC(=O)NS(=O)(=O)C2=CC=CC=C2C(=O)O)Cl,454.2
chlorobenzene,Clc1ccccc1,227.9
chlorocyclohexane,ClC1CCCCC1,229.3
chlorocyclopentane,ClC1CCCC1,180.0
chlorodifluoromethane,FC(F)Cl,115.7
chloroethane,CCCl,134.8
chloroethyl methacrylate,CC(=C)C(=O)OCCCl,235.1
chloropentafluorobenzene,Fc1c(F)c(F)c(Cl)c(F)c1F,257.5
chlorothiazide,N[S](=O)(=O)c1cc2c(NC=N[S]2(=O)=O)cc1Cl,616.2
chlorotoluron,CN(C)C(=O)Nc1ccc(C)c(Cl)c1,421.2
chlorotrifluoroethylene,FC(F)=C(F)Cl,115.0
chloroxuron,CN(C)C(=O)Nc1ccc(Oc2ccc(Cl)cc2)cc1,424.2
chlorpropamide,CCCNC(=O)N[S](=O)(=O)c1ccc(Cl)cc1,400.2
chlorsulfuron,COc1nc(C)nc(NC(=O)N[S](=O)(=O)c2ccccc2Cl)n1,449.2
cholesterol acetate,CC(C)CCC[C@@H](C)[C@H]1CC[C@H]2[C@@H]3CC=C4C[C@H](CC[C@]4(C)[C@H]3CC[C@]12C)OC(C)=O,388.0
chroman,C1COc2ccccc2C1,269.8
chromone,O=C1C=COc2ccccc12,330.3
chrysene,c1ccc2c(c1)ccc3c4ccccc4ccc23,531.4
cinnamic acid,OC(=O)C=Cc1ccccc1,406.2
cinnamic anhydride,O=C(OC(=O)C=Cc1ccccc1)C=Cc2ccccc2,321.2
cinnamyl alcohol,OCC=Cc1ccccc1,308.2
"cis-1,2-cyclohexanediol",O[C@H]1CCCC[C@H]1O,371.6
"cis-1,2-dimethylcyclohexane",C[C@@H]1CCCC[C@@H]1C,223.3
"cis-1,2-dimethylcyclopentane",C[C@@H]1CCC[C@@H]1C,219.4
"cis-1,3-dimethylcyclohexane",C[C@H]1CCC[C@@H](C)C1,197.6
"cis-1,4-dimethylcyclohexane",C[C@@H]1CC[C@H](C)CC1,185.7
"cis-1,4-di-tert-butylcyclohexane",CC(C)(C)[C@@H]1CC[C@@H](CC1)C(C)(C)C,293.2
cis-2-butene,C\C=C/C,134.3
cis-2-hexene,CCC\C=C/C,132.0
cis-2-pentene,CC\C=C/C,121.8
cis-3-chloro-2-butenoic acid,C/C(Cl)=C/C(O)=O,333.7
cis-6-octadecenoic acid,CCCCCCCCCCC\C=C/CCCCC(O)=O,303.7
cis-9-octadecenoic acid,CCCCCCCC\C=C/CCCCCCCC(O)=O,286.5
cis-crotonic acid,C\C=C/C(O)=O,344.4
coronene,c1cc2ccc3ccc4ccc5ccc6ccc1c7c2c3c4c5c67,710.5
cortisone,C[C@]12CCC(=O)C=C1CC[C@H]3[C@@H]4CC[C@](O)(C(=O)CO)[C@@]4(C)CC(=O)[C@H]23,495.0
cortisone acetate,CC(=O)OCC(=O)[C@@]1(O)CC[C@H]2[C@@H]3CCC4=CC(=O)CC[C@]4(C)[C@H]3C(=O)C[C@]12C,509.0