NAME,SMILES,Tm (K)
"N(3),N(3)-diethyl-2,4-dinitro-6-(trifluoromethyl)-1,3-benzenediamine",CCN(CC)c1c(cc(c(N)c1[N+]([O-])=O)C(F)(F)F)[N+]([O-])=O,372.1
"N-(3,4-dichlorophenyl)-2-methyl-2-propenamide",CC(=C)C(=O)Nc1ccc(Cl)c(Cl)c1,395.5
"N'-(3-chloro-4-methoxyphenyl)-N,N-dimethylurea",COc1ccc(NC(=O)N(C)C)cc1Cl,399.2
N-(3-chloro-4-methylphenyl)-2-methylpentanamide,CCCC(C)C(=O)Nc1ccc(C)c(Cl)c1,353.2
"N-(4-chlorophenyl)-2,2-dimethylpentanamide",CCCC(C)(C)C(=O)Nc1ccc(Cl)cc1,360.2
N'-(4-chlorophenyl)-N-methoxy-N-methylurea,CON(C)C(=O)Nc1ccc(Cl)cc1,353.4
"N-(cyclopropylmethyl)-2,6-dinitro-n-propyl-4-(trifluoromethyl)benzenamine",CC(Cc1cc(cc(c1NCC2CC2)[N+]([O-])=O)C(F)(F)F)[N+]([O-])=O,305.8
"N,N-diethyl-2-(1-naphthyloxy)propionamide",CCN(CC)C(=O)C(C)Oc1cccc2ccccc12,345.3
"N,N-dimethyl-1,3-propanediamine",CN(C)CCCN,194.4
"N,N-dimethyl-2,2-diphenylacetamide",CN(C)C(=O)C(c1ccccc1)c2ccccc2,407.1
"N,N-dimethyl-2,2-diphenylbenzeneacetamide",CN(C)C(=O)CC1C=CC=CC1(c2ccccc2)c3ccccc3,402.0
"N,N-dimethyl-2-methylcarbamoyloxyimino-2-(methylthio)acetamide",CNC(=O)ON=C(SC)C(=O)N(C)C,372.2
"N,N-dimethyl-4-phenylazoaniline",CN(C)c1ccc(cc1)N=Nc2ccccc2,389.2
"N,N-dimethylaniline",CN(C)c1ccccc1,275.6
"N,N-dimethylformamide",CN(C)C=O,212.9
"N,N'-dimethylhydrazine",CNNC,264.3
"N,N-dimethylhydrazine",CN(C)N,216.0
"N,N'-dimethyl-N,N'dinitro-1,2-ethanediamine",CN(CCN(C)[N+]([O-])=O)[N+]([O-])=O,410.0
"N,N'-dimethyl-N,N'dinitro-1,6-hexanediamine",CN(CCCCCCN(C)[N+]([O-])=O)[N+]([O-])=O,331.0
"N,N-dimethyl-N'-[3-(trifluoromethyl)-phenyl]urea",CN(C)C(=O)Nc1cccc(c1)C(F)(F)F,434.1
"N,N-dimethyl-N'-[4-(1-methylethyl)phenyl]urea",CC(C)c1ccc(NC(=O)N(C)C)cc1,430.5
"N,N'-di-n-hexyladipamide",CCCCCCNC(=O)CCCCC(=O)NCCCCCC,432.0
"N,N'-dinitroethanediamine",CC(N[N+]([O-])=O)N[N+]([O-])=O,450.0
"N,N'-di-n-propyladipamide",CCCNC(=O)CCCCC(=O)NCCC,452.0
"N-[(1,1,2,2-tetrachloroethyl)thio]-4-cyclohexene-1,2-dicarboximide",ClC(Cl)C(Cl)(Cl)SN1C(=O)C2CC=CCC2C1=O,432.0
N-[4-(methoxymethyl)-1-[2-(2-thienyl)ethyl]-4-piperidinyl]-N-phenyl-propanamide,CCC(=O)N(c1ccccc1)C2(CCN(CCc3sccc3)CC2)COC,370.2
N-[4-methyl-3-[[(trifluoromethyl)sulfonyl]amino]phenyl]acetamide,CC(=O)Nc1ccc(C)c(N[S](=O)(=O)C(F)(F)F)c1,455.7
"N-[5-(1,1-dimethylethyl)-1,3,4-thiadiazol-2-yl]-N,N'-dimethylurea",CNC(=O)N(C)c1sc(nn1)C(C)(C)C,435.3
N-acetyl-D-leucine amide,CC(C)C[C@@H](N)C(=O)NC(C)=O,404.0
N-acetylglycine amide,CC(=O)NC(=O)CN,408.2
N-acetylglycyl-L-prolinamide,CC(=O)NCC(=O)N1CCC[C@H]1C(N)=O,457.8
N-acetyl-L-alanine amide,C[C@H](N)C(=O)NC(C)=O,431.0
N-acetyl-L-isoleucinamide,CC[C@H](C)[C@H](N)C(=O)NC(C)=O,529.6
N-acetyl-L-prolyl-glycinamide,CC(=O)N1CCC[C@H]1C(=O)NCC(N)=O,434.1
N-acetyl-pyrazinamide,CC(=O)NC(=O)c1cnccn1,366.7
N-acetylsarcosinamide,CNCC(=O)NC(C)=O,412.7
N-allyl-N-phenylthiourea,NC(=S)N(CC=C)c1ccccc1,375.0
nandrolone,C[C@]12CC[C@H]3[C@@H](CCC4=CC(=O)CC[C@H]34)[C@@H]1CC[C@@H]2O,385.2
nandrolone decanoate,CCCCCCCCCC(=O)O[C@H]1CC[C@H]2[C@@H]3CCC4=CC(=O)CC[C@@H]4[C@H]3CC[C@]12C,308.2
naphthalene,c1ccc2ccccc2c1,353.4
N-benzylaniline,C(Nc1ccccc1)c2ccccc2,305.6
N-butyl dodecanamide,CCCCCCCCCCCC(=O)NCCCC,322.1
n-butyl mercaptan,CCCCS,157.5
N-butyl tetradecanamide,CCCCCCCCCCCCCC(=O)NCCCC,336.1
n-butylbenzene,CCCCc1ccccc1,185.3
n-butylcyclohexane,CCCCC1CCCCC1,198.4
n-butylcyclopentane,CCCCC1CCCC1,165.2
"N-butyl-N'-(3,4-dichlorophenyl)-N-methylurea",CCCCN(C)C(=O)Nc1ccc(Cl)c(Cl)c1,374.3
"N-butyl-N-ethyl-2,6-dinitro-4-trifluoromethylaniline",CCCCN(CC)c1c(cc(cc1[N+]([O-])=O)C(F)(F)F)[N+]([O-])=O,338.5
N-butylurea,CCCCNC(N)=O,369.3
n-decane,CCCCCCCCCC,243.5
N-decyl hexadecanamide,CCCCCCCCCCCCCCCC(=O)NCCCCCCCCCC,347.0
n-decylcyclohexane,CCCCCCCCCCC1CCCCC1,271.4
n-decylcyclopentane,CCCCCCCCCCC1CCCC1,251.0
N-decylundecanamide,CCCCCCCCCCNC(=O)CCCCCCCCCC,344.0
N-dimethylaminosuccinamic acid,CN(C)NC(=O)CCC(O)=O,431.4
n-docosane,CCCCCCCCCCCCCCCCCCCCCC,316.1
n-dodecylcyclohexane,CCCCCCCCCCCCC1CCCCC1,258.8
n-dononacontahectane,CCCCCCCCCCCCCCCCCCCCCCCCCCCCCCCCCCCCCCCCCCCCCCCCCCCCCCCCCCCCCCCCCCCCCCCCCCCCCCCCCCCCCCCCCCCCCCCCCCCCCCCCCCCCCCCCCCCCCCCCCCCCCCCCCCCCCCCCCCCCCCCCCCCCCCCCCCCCCCCCCCCCCCCCCCCCCCCCCCCCCCCCCCCCCCCC,399.1
n-eicosane,CCCCCCCCCCCCCCCCCCCC,309.7
"neopentyl-4,4,4-trinitrobutyrate",CC(C)(C)COC(=O)CCC([N+]([O-])=O)([N+]([O-])=O)[N+]([O-])=O,333.5
N-ethylurea,CCNC(N)=O,365.1
n-hectane,CCCCCCCCCCCCCCCCCCCCCCCCCCCCCCCCCCCCCCCCCCCCCCCCCCCCCCCCCCCCCCCCCCCCCCCCCCCCCCCCCCCCCCCCCCCCCCCCCCCC,388.5
n-heneicosane,CCCCCCCCCCCCCCCCCCCCC,313.7
n-heptacosane,CCCCCCCCCCCCCCCCCCCCCCCCCCC,332.1
n-heptadecane,CCCCCCCCCCCCCCCCC,295.1
N-heptylmyristamide,CCCCCCCCCCCCCC(=O)NCCCCCCC,343.0
n-hexacosane,CCCCCCCCCCCCCCCCCCCCCCCCCC,329.5
n-hexane,CCCCCC,177.8
N-hexyl decanamide,CCCCCCCCCC(=O)NCCCCCC,311.0
N-hexyl hexadecanamide,CCCCCCCCCCCCCCCC(=O)NCCCCCC,343.1
N-hexyl tetradecanamide,CCCCCCCCCCCCCC(=O)NCCCCCC,334.0
nicosulfuron,COc1cc(OC)nc(NC(=O)N[S](=O)(=O)c2ncccc2C(=O)N(C)C)n1,415.2
nicotinic acid,OC(=O)c1cccnc1,510.0
N-isopropylcarbazole,CC(C)n1c2ccccc2c3ccccc13,395.2
N-isopropylurea,CC(C)NC(N)=O,280.8
Nitralin,CCCN(CCC)c1c(cc(cc1[N+]([O-])=O)[S](C)(=O)=O)[N+]([O-])=O,425.2
nitrobenzene,[O-][N+](=O)c1ccccc1,278.8
nitroethane,CC[N+]([O-])=O,183.7
nitromethane,C[N+]([O-])=O,244.8
N-laurylnonanamide,CCCCCCCCCCCCNC(=O)CCCCCCCC,341.0
"N-methyl-2,4,6,N-tetranitroaniline",CN(c1c(cc(cc1[N+]([O-])=O)[N+]([O-])=O)[N+]([O-])=O)[N+]([O-])=O,402.6
N-methylacetamide,CNC(C)=O,303.8
N-methylcarbazole,Cn1c2ccccc2c3ccccc13,362.5
N-methyldiphenylacetamide,CNC(=O)C(c1ccccc1)c2ccccc2,439.8
N-methyl-N-nitrobutanamine,CCCCN(C)[N+]([O-])=O,331.0
N-methylpyrrole,Cn1cccc1,216.9
N-methylurea,CNC(N)=O,378.1
N-myristylheptanamide,CCCCCCCCCCCCCCNC(=O)CCCCCC,334.0
N-nitro-N-methylaminomethane,CN(C)[N+]([O-])=O,327.0
n-nonacosane,CCCCCCCCCCCCCCCCCCCCCCCCCCCCC,336.6
n-octacosane,CCCCCCCCCCCCCCCCCCCCCCCCCCCC,334.5
n-octane,CCCCCCCC,216.4
n-octylbenzene,CCCCCCCCc1ccccc1,234.2
nonadecane,CCCCCCCCCCCCCCCCCCC,305.3
nonadecanoic acid,CCCCCCCCCCCCCCCCCCC(O)=O,341.2
nonanal,CCCCCCCCC=O,253.9
nonane,CCCCCCCCC,219.7
nonanoic acid,CCCCCCCCC(O)=O,285.5
nonyl acrylate,CCCCCCCCCOC(=O)C=C,236.5
nonyl phenylcarbamate,CCCCCCCCCOC(=O)Nc1ccccc1,327.0
norethindrone,C[C@]12CC[C@H]3[C@@H](CCC4=CC(=O)CC[C@H]34)[C@@H]1CC[C@@]2(O)C#C,479.0
norethindrone acetate,CC(=O)O[C@]1(CC[C@H]2[C@@H]3CCC4=CC(=O)CC[C@@H]4[C@H]3CC[C@]12C)C#C,480.0
norgestrel,CC[C@]12CC[C@H]3[C@@H](CCC4=CC(=O)CC[C@H]34)[C@@H]1CC[C@@]2(O)C#C,482.2
Novaluron,FC(OC(F)(F)F)C(F)(F)Oc1ccc(NC(=O)NC(=O)c2c(F)cccc2F)cc1Cl,450.7
N-palmitoyl-pyrazinamide,CCCCCCCCCCCCCCCC(=O)NC(=O)c1cnccn1,362.7
n-pentacontane,CCCCCCCCCCCCCCCCCCCCCCCCCCCCCCCCCCCCCCCCCCCCCCCCCC,366.9
n-pentacosane,CCCCCCCCCCCCCCCCCCCCCCCCC,326.7
n-pentadecane,CCCCCCCCCCCCCCC,283.1
n-pentatriacontane,CCCCCCCCCCCCCCCCCCCCCCCCCCCCCCCCCCC,347.2
n-propylbenzene,CCCc1ccccc1,173.6
n-propylcyclohexane,CCCC1CCCCC1,178.3
N-propylstearamide,CCCCCCCCCCCCCCCCCC(=O)NCCC,354.0
N-propylurea,CCCNC(N)=O,381.0
N-salicylidene-m-aminobenzoic acid,OC(=O)c1cccc(c1)N=Cc2ccccc2O,464.0
N-stearylpropanamide,CCCCCCCCCCCCCCCCCCNC(=O)CC,350.0
N-Sulfanilylsulfanilamide,Nc1ccc(cc1)[S](=O)(=O)N[S](=O)(=O)c2ccc(N)cc2,407.2
N-tert-butylurea,CC(C)(C)NC(N)=O,449.8
n-tetracosane,CCCCCCCCCCCCCCCCCCCCCCCC,324.1
n-tetratetracontane,CCCCCCCCCCCCCCCCCCCCCCCCCCCCCCCCCCCCCCCCCCCC,360.9
n-tricosane,CCCCCCCCCCCCCCCCCCCCCCC,320.7
n-tridecane,CCCCCCCCCCCCC,267.8
n-undecane,CCCCCCCCCCC,247.6
N-vinylpyrrolidone,C=CN1CCCC1=O,286.2
"O-(2-chloro-4-nitrophenyl) O,O-dimethyl phosphorothioate",CO[P](=S)(OC)Oc1ccc(cc1Cl)[N+]([O-])=O,323.9
"O-(4-bromo-2,5-dichlorophenyl) O,O-dimethyl phosphorothioate",CO[P](=S)(OC)Oc1cc(Cl)c(Br)cc1Cl,325.3
"O-(4-bromo-2,5-dichlorophenyl) O-methyl phenylphosphonothioate",CO[P](=S)(Oc1cc(Cl)c(Br)cc1Cl)c2ccccc2,345.6
o-(methylamino)benzoic acid,CNc1ccccc1C(O)=O,452.2
"O,O,O',O'-tetramethyl O,O'-thiodi-p-phenylene bis(phosphorothioate)",CO[P](=S)(OC)Oc1ccc(Sc2ccc(O[P](=S)(OC)OC)cc2)cc1,303.2
"O,O-diethyl O-4-nitrophenyl phosphorothioate",CCO[P](=S)(OCC)Oc1ccc(cc1)[N+]([O-])=O,278.1
"O,O-diethyl-O-(3,5,6-trichloro-2-pyridyl)phosphorothioate",CCO[P](=S)(OCC)Oc1nc(Cl)c(Cl)cc1Cl,315.0
"O,O-dimethyl O-(2,4,5-trichlorophenyl) phosphorothioate",CO[P](=S)(OC)Oc1cc(Cl)c(Cl)cc1Cl,313.0
"O,O-dimethyl O-4-nitrophenyl phosphorothioate",CO[P](=S)(OC)Oc1ccc(cc1)[N+]([O-])=O,308.2
"O,O-dimethyl S-[2-(methylamino)-2-oxoethyl] phosphorodithioate",CNC(=O)CS[P](=S)(OC)OC,321.0
"O,O-dimethyl S-phthalimidomethyl phosphorodithioate",CO[P](=S)(OC)SCN1C(=O)c2ccccc2C1=O,343.2
"O,O-dimethyl-O-(3,5,6-trichloro-2-pyridyl)phosphorothioate",CO[P](=S)(OC)Oc1nc(Cl)c(Cl)cc1Cl,318.7
"O,S-dimethyl phosphoroamidothioate",CO[P](N)(=O)SC,316.8
"O-6-ethoxycarbonyl-5-methylpyrazolo[1,5-a]pyrimidin-2-yl O,O-diethyl phosphorothioate",CCOC(=O)C1=CN2C(=CC(=N2)OP(=S)(OCC)OCC)N=C1C,324.4
o-acetamidobenzoic acid,CC(=O)Nc1ccccc1C(O)=O,458.2
o-acetotoluidide,CC(=O)Nc1ccccc1C,385.2
o-acetoxybenzoic acid,CC(=O)Oc1ccccc1C(O)=O,408.2
o-aminoacetanilide,CC(=O)Nc1ccccc1N,405.2
o-aminoacetophenone,CC(=O)c1ccccc1N,293.2
o-aminobenzaldehyde,Nc1ccccc1C=O,313.2
o-aminobenzaldehyde oxime,Nc1ccccc1C=NO,408.2
o-aminobenzyl alcohol,Nc1ccccc1CO,355.2
o-aminophenol,Nc1ccccc1O,447.4
o-benzenedicarboxylic acid,OC(=O)c1ccccc1C(O)=O,507.2
o-bromoacetanilide,CC(=O)Nc1ccccc1Br,372.2
o-bromoaniline,Nc1ccccc1Br,305.2
o-bromoanisole,COc1ccccc1Br,275.7
o-bromobenzaldehyde,Brc1ccccc1C=O,295.2
o-bromobenzamide,NC(=O)c1ccccc1Br,428.2
o-bromobenzoic acid,OC(=O)c1ccccc1Br,423.2
o-bromobenzonitrile,Brc1ccccc1C#N,326.2
o-bromobenzyl alcohol,OCc1ccccc1Br,353.2
o-bromobenzyl bromide,BrCc1ccccc1Br,304.2
o-bromomethylbenzoic acid,OC(=O)c1ccccc1CBr,423.2
o-bromophenol,Oc1ccccc1Br,278.2
o-bromophenyl urea,NC(=O)Nc1ccccc1Br,475.2
o-bromotoluene,Cc1ccccc1Br,245.2
o-chloroacetanilide,CC(=O)Nc1ccccc1Cl,361.2
o-chloroaniline,Nc1ccccc1Cl,274.2
o-chloroanisole,COc1ccccc1Cl,246.4
o-chlorobenzaldehyde,Clc1ccccc1C=O,284.2
o-chlorobenzamide,NC(=O)c1ccccc1Cl,414.2
o-chlorobenzonitrile,Clc1ccccc1C#N,316.2
o-chlorobenzyl alcohol,OCc1ccccc1Cl,347.2
o-chloroethylbenzene,ClCCc1ccccc1,190.5
o-chlorotoluene,Cc1ccccc1Cl,235.2
octadecanamide,CCCCCCCCCCCCCCCCCC(N)=O,377.2
octadecane,CCCCCCCCCCCCCCCCCC,301.3
octadecanoic acid,CCCCCCCCCCCCCCCCCC(O)=O,342.5
octadecanol,CCCCCCCCCCCCCCCCCCO,334.2
octafluoropropane,FC(F)(F)C(F)(F)C(F)(F)F,125.5
octafluorotetrahydrothiophene,FC1(F)SC(F)(F)C(F)(F)C1(F)F,266.7
octanal,CCCCCCCC=O,288.2
octanoic acid,CCCCCCCC(O)=O,289.7
octyl methacrylate,CCCCCCCCOC(=O)C(C)=C,230.3
o-cyanoaniline,Nc1ccccc1C#N,323.2
o-cyanobenzaldehyde,O=Cc1ccccc1C#N,382.2
o-cyanobenzoic acid,OC(=O)c1ccccc1C#N,463.2
o-cymene,CC(C)c1ccccc1C,201.7
o-diacetylbenzene,CC(=O)c1ccccc1C(C)=O,313.2
o-diethylbenzene,CCc1ccccc1CC,242.0
o-ethoxyacetanilide,CCOc1ccccc1NC(C)=O,352.2
o-ethoxybenzamide,CCOc1ccccc1C(N)=O,405.2
o-ethoxybenzoic acid,CCOc1ccccc1C(O)=O,292.2
o-ethoxyphenyl acetate,CCOc1ccccc1OC(C)=O,275.2
O-ethyl O-(4-nitrophenyl)phenylphosphonothioate,CCO[P](=S)(Oc1ccc(cc1)[N+]([O-])=O)c2ccccc2,308.2
o-ethylbenzoic acid,CCc1ccccc1C(O)=O,341.2
o-ethyltoluene,CCc1ccccc1C,192.2
o-fluorobenzoic acid,OC(=O)c1ccccc1F,400.2
o-hydroxyacetanilide,CC(=O)Nc1ccccc1O,364.5
o-hydroxyacetophenone,CC(=O)c1ccccc1O,277.2
o-hydroxybenzaldehyde,Oc1ccccc1C=O,266.2
o-hydroxybenzaldehyde oxime,ON=Cc1ccccc1O,336.2
o-hydroxybenzamide,NC(=O)c1ccccc1O,412.2
o-hydroxybenzyl alcohol,OCc1ccccc1O,360.2
o-hydroxybiphenyl,Oc1ccccc1c2ccccc2,330.6
o-hydroxytoluene,Cc1ccccc1O,304.2
o-iodoacetanilide,CC(=O)Nc1ccccc1I,383.2
o-iodoaniline,Nc1ccccc1I,331.2
o-iodobenzaldehyde,Ic1ccccc1C=O,310.2
o-iodobenzaldehyde oxime,ON=Cc1ccccc1I,381.2
o-iodobenzamide,NC(=O)c1ccccc1I,457.2
o-iodobenzyl alcohol,OCc1ccccc1I,363.2
o-iodobenzyl bromide,BrCc1ccccc1I,330.2
o-iodophenol,Oc1ccccc1I,316.2
o-isopropylbenzoic acid,CC(C)c1ccccc1C(O)=O,337.2
o-methoxyacetanilide,COc1ccccc1NC(C)=O,361.2
o-methoxyaniline,COc1ccccc1N,279.2
o-methoxybenzaldehyde,COc1ccccc1C=O,311.2
o-methoxybenzaldoxime,COc1ccccc1C=NO,365.2
o-methoxybenzamide,COc1ccccc1C(N)=O,402.2
o-methoxybenzoic acid,COc1ccccc1C(O)=O,374.2
o-methoxyphenol,COc1ccccc1O,305.2
o-methoxyphenyl acetate,COc1ccccc1OC(C)=O,283.2
o-methylbenzyl alcohol,Cc1ccccc1CO,309.2
o-nitroacetanilide,CC(=O)Nc1ccccc1[N+]([O-])=O,367.2
o-nitroacetophenone,CC(=O)c1ccccc1[N+]([O-])=O,301.2
o-nitrobenzaldehyde,[O-][N+](=O)c1ccccc1C=O,317.2
o-nitrobenzaldoxime,ON=Cc1ccccc1[N+]([O-])=O,376.2
o-nitrobenzamide,NC(=O)c1ccccc1[N+]([O-])=O,448.2
o-nitrobenzoic acid,OC(=O)c1ccccc1[N+]([O-])=O,419.0
o-nitrobenzonitrile,[O-][N+](=O)c1ccccc1C#N,383.2
o-nitrobenzoyl chloride,[O-][N+](=O)c1ccccc1C(Cl)=O,293.2
o-nitrobenzyl alcohol,OCc1ccccc1[N+]([O-])=O,347.2
o-nitrobenzyl bromide,[O-][N+](=O)c1ccccc1CBr,320.2
o-nitrobenzyl chloride,[O-][N+](=O)c1ccccc1CCl,322.2
o-nitrobenzyl cyanide,[O-][N+](=O)c1ccccc1CC#N,357.2
o-nitrobenzyl iodide,[O-][N+](=O)c1ccccc1CI,348.2
o-nitrobromobenzene,[O-][N+](=O)c1ccccc1Br,315.2
o-nitroiodobenzene,[O-][N+](=O)c1ccccc1I,327.2
o-nitrophenol,Oc1ccccc1[N+]([O-])=O,318.2
o-nitrophenyl acetate,CC(=O)Oc1ccccc1[N+]([O-])=O,314.2
o-nitrophenylacetic acid,OC(=O)Cc1ccccc1[N+]([O-])=O,416.2
o-nitrotoluene,Cc1ccccc1[N+]([O-])=O,269.2
o-n-propylbenzoic acid,CCCc1ccccc1C(O)=O,331.2
o-phenylenediacetic acid,OC(=O)Cc1ccccc1CC(O)=O,423.2
o-phenylenediamine,Nc1ccccc1N,373.9
o-phenylenepyrene,c1ccc2c(c1)c3ccc4ccc5cccc6cc2c3c4c56,435.2
Orbencarb,CCN(CC)C(=O)SCc1ccccc1Cl,282.2
o-terphenyl,c1ccc(cc1)c2ccccc2c3ccccc3,329.4
o-tolualdehyde oxime,Cc1ccccc1C=NO,322.2
o-toluamide,Cc1ccccc1C(N)=O,413.2
o-toluic acid,Cc1ccccc1C(O)=O,376.9
o-toluidine,Cc1ccccc1N,287.6
o-tolunitrile,Cc1ccccc1C#N,259.2
o-tolylurea,Cc1ccccc1NC(N)=O,464.2
Oxamyl,CNC(=O)O\N=C(SC)\C(=O)N(C)C,374.2
oxandrolone,C[C@]1(O)CC[C@H]2[C@@H]3CC[C@H]4CC(=O)OC[C@]4(C)[C@H]3CC[C@]12C,498.2
Oxasulfuron,Cc1cc(C)nc(NC(=O)N[S](=O)(=O)c2ccccc2C(=O)OC3COC3)n1,431.2
o-xylene,Cc1ccccc1C,247.8
oxymetholone,C[C@]1(O)CC[C@H]2[C@@H]3CC[C@H]4CC(=O)C(/C[C@]4(C)[C@H]3CC[C@]12C)=C\O,452.2
p-(methylamino)benzoic acid,CNc1ccc(cc1)C(O)=O,441.2
"p,p'-dichlorobenzophenone",Clc1ccc(cc1)C(=O)c2ccc(Cl)cc2,420.0
p-acetamidobenzoic acid,CC(=O)Nc1ccc(cc1)C(O)=O,524.2
p-acetotoluidide,CC(=O)Nc1ccc(C)cc1,427.2
p-aminoacetanilide,CC(=O)Nc1ccc(N)cc1,436.2
p-aminobenzaldehyde,Nc1ccc(C=O)cc1,345.2
p-aminobenzaldehyde oxime,Nc1ccc(cc1)C=NO,397.2
p-aminobenzamide,NC(=O)c1ccc(N)cc1,387.2
p-aminobenzene sulphonamide,Nc1ccc(cc1)[S](N)(=O)=O,439.3
p-aminobenzyl alcohol,Nc1ccc(CO)cc1,338.2
p-aminophenol,Nc1ccc(O)cc1,462.5
p-benzoquinone,O=C1C=CC(=O)C=C1,388.0
p-bromoacetanilide,CC(=O)Nc1ccc(Br)cc1,440.2
p-bromoacetophenone,CC(=O)c1ccc(Br)cc1,324.2
p-bromoaniline,Nc1ccc(Br)cc1,339.2
p-bromoanisole,COc1ccc(Br)cc1,286.2
p-bromobenzaldehyde,Brc1ccc(C=O)cc1,340.2
p-bromobenzamide,NC(=O)c1ccc(Br)cc1,462.2
p-bromobenzoic acid,OC(=O)c1ccc(Br)cc1,525.2
p-bromobenzonitrile,Brc1ccc(cc1)C#N,386.2
p-bromobenzyl alcohol,OCc1ccc(Br)cc1,350.2
p-bromobenzyl bromide,BrCc1ccc(Br)cc1,336.2
p-bromoethynylbenzene,BrC#Cc1ccccc1,338.2
p-bromoisopropylbenzene,CC(C)c1ccc(Br)cc1,250.2
p-bromomethylbenzoic acid,OC(=O)c1ccc(CBr)cc1,502.2
p-bromophenetole,CCOc1ccc(Br)cc1,277.2
p-bromophenyl urea,NC(=O)Nc1ccc(Br)cc1,500.2
p-bromotoluene,Cc1ccc(Br)cc1,302.2
p-chloroacetanilide,CC(=O)Nc1ccc(Cl)cc1,452.2
p-chloroacetophenone,CC(=O)c1ccc(Cl)cc1,293.2
p-chloroaniline,Nc1ccc(Cl)cc1,344.2
p-chlorobenzaldehyde,Clc1ccc(C=O)cc1,320.2
p-chlorobenzamide,NC(=O)c1ccc(Cl)cc1,452.2
p-chlorobenzonitrile,Clc1ccc(cc1)C#N,369.2
p-chlorobenzyl alcohol,OCc1ccc(Cl)cc1,348.2
p-chlorobenzyl bromide,Clc1ccc(CBr)cc1,324.2
p-chlorobenzyl p-chlorophenyl sulfide,Clc1ccc(CSc2ccc(Cl)cc2)cc1,343.8
p-chlorophenetole,CCOc1ccc(Cl)cc1,294.2
p-chlorotoluene,Cc1ccc(Cl)cc1,280.7
p-cyanoaniline,Nc1ccc(cc1)C#N,359.2
p-cyanobenzaldehyde,O=Cc1ccc(cc1)C#N,374.2
p-cyanobenzoic acid,OC(=O)c1ccc(cc1)C#N,492.2
p-cymene,CC(C)c1ccc(C)cc1,199.2
p-diacetylbenzene,CC(=O)c1ccc(cc1)C(C)=O,386.2
p-diethylbenzene,CCc1ccc(CC)cc1,230.3
p-diethynylbenzene,C#Cc1ccc(cc1)C#C,368.2
p-difluorobenzene,Fc1ccc(F)cc1,260.2
p-dioxanone,O=C1COCCO1,301.7
Pebulate,CCCCN(CC)C(=O)SCCC,251.2
penbutolol,CC(C)(C)NC[C@@H](O)COc1ccccc1C2CCCC2,343.2
Pencycuron,Clc1ccc(CN(C2CCCC2)C(=O)Nc3ccccc3)cc1,403.2
Pendimethalin,CCC(CC)Nc1c(cc(C)c(C)c1[N+]([O-])=O)[N+]([O-])=O,330.2
pentabromophenol,Oc1c(Br)c(Br)c(Br)c(Br)c1Br,502.0
pentachloroaniline,ClN(Cl)c1ccc(Cl)c(Cl)c1Cl,505.8
pentachlorobenzene,Clc1cc(Cl)c(Cl)c(Cl)c1Cl,357.7
pentachloronitrobenzene,[O-][N+](=O)c1c(Cl)c(Cl)c(Cl)c(Cl)c1Cl,418.0
pentachlorophenol,Oc1c(Cl)c(Cl)c(Cl)c(Cl)c1Cl,462.5
pentadecanoic acid,CCCCCCCCCCCCCCC(O)=O,325.7
pentaerythritol,OCC(CO)(CO)CO,538.7
pentaerythritol tetrafluoride,[F-].[F-].[F-].[F-].OCC(CO)(CO)CO,249.4
pentaerythrityl tetrabromide,BrCC(CBr)(CBr)CBr,433.5
pentafluoroaniline,FN(F)c1ccc(F)c(F)c1F,306.8
pentafluorobenzene,Fc1cc(F)c(F)c(F)c1F,225.7
pentafluorochloroethane,FC(F)(F)C(F)(F)Cl,173.7
pentafluoroethane,FC(F)C(F)(F)F,172.6
pentafluoronitrobenzene,[O-][N+](=O)c1c(F)c(F)c(F)c(F)c1F,250.5
pentafluorophenol,Oc1c(F)c(F)c(F)c(F)c1F,310.6
pentamethylbenzene,Cc1cc(C)c(C)c(C)c1C,328.2
pentane,CCCCC,143.5
pentanoic acid,CCCCC(O)=O,239.5
pentyl 4-aminobenzoate,CCCCCOC(=O)c1ccc(N)cc1,325.1
perfluorotoluene,Fc1c(F)c(F)c(c(F)c1F)C(F)(F)F,207.0
perylene,c1cc2cccc3c4cccc5cccc(c(c1)c23)c45,551.0
p-ethoxyacetanilide,CCOc1ccc(NC(C)=O)cc1,407.2
p-ethoxyaniline,CCOc1ccc(N)cc1,277.2
p-ethoxybenzamide,CCOc1ccc(cc1)C(N)=O,475.2
p-ethoxyphenylacetate,CCOc1ccc(CC([O-])=O)cc1,333.2
p-ethylphenol,CCc1ccc(O)cc1,320.2
p-ethyltoluene,CCc1ccc(C)cc1,211.2
p-fluorobenzoic acid,OC(=O)c1ccc(F)cc1,458.2
phenanthrene,c1ccc2c(c1)ccc3ccccc23,372.4
phenanthridine,c1ccc2c(c1)cnc3ccccc23,379.7
phenazine,c1ccc2nc3ccccc3nc2c1,450.2
phenobarbital,CCC1(C(=O)NC(=O)NC1=O)c2ccccc2,447.2
Phenobenzuron,CN(C)C(=O)N(c1ccc(Cl)c(Cl)c1)C(=O)c2ccccc2,392.2
phenol,Oc1ccccc1,314.0
phenolphthalein,Oc1ccc(cc1)C2(OC(=O)c3ccccc23)c4ccc(O)cc4,534.0
phenoxathiin,O1c2ccccc2Sc3ccccc13,328.8
phenyl glycidyl ether,C1OC1COc2ccccc2,279.8
phenyl vinyl sulfone,C=C[S](=O)(=O)c1ccccc1,343.4
phenylacetic acid,OC(=O)Cc1ccccc1,349.9
phenylacetylene,C#Cc1ccccc1,228.0
phenylaminoethyl methacrylate,CC(=C)C(=O)OCCNc1ccccc1,297.5
phenylhydrazine,NNc1ccccc1,292.8
phenyl-o-tolylmethane,Cc1ccccc1Cc2ccccc2,279.8
phenylurea,NC(=O)Nc1ccccc1,420.6
phthalazine,c1ccc2cnncc2c1,364.5
phthalic anhydride,O=C1OC(=O)c2ccccc12,403.3
p-hydroxyacetanilide,CC(=O)Nc1ccc(O)cc1,441.2
p-hydroxyacetophenone,CC(=O)c1ccc(O)cc1,382.2
p-hydroxybenzaldehyde,Oc1ccc(C=O)cc1,389.2
p-hydroxybenzaldehyde oxime,ON=Cc1ccc(O)cc1,345.2
p-hydroxybenzamide,NC(=O)c1ccc(O)cc1,435.2
p-hydroxybenzyl alcohol,OCc1ccc(O)cc1,398.2
p-hydroxytoluene,Cc1ccc(O)cc1,307.9
picene,c1ccc2c(c1)ccc3c2ccc4c5ccccc5ccc34,637.2
picolinic acid,OC(=O)c1ccccn1,411.0
picric acid,Oc1c(cc(cc1[N+]([O-])=O)[N+]([O-])=O)[N+]([O-])=O,394.1
pindolol,CC(C)NCC(O)COc1cccc2[nH]ccc12,442.2
p-iodoacetanilide,CC(=O)Nc1ccc(I)cc1,457.2
p-iodoacetophenone,CC(=O)c1ccc(I)cc1,358.2
p-iodoaniline,Nc1ccc(I)cc1,336.2
p-iodoanisole,COc1ccc(I)cc1,325.2
p-iodobenzaldehyde,Ic1ccc(C=O)cc1,351.2
p-iodobenzamide,NC(=O)c1ccc(I)cc1,491.2
p-iodobenzyl alcohol,OCc1ccc(I)cc1,345.2
p-iodobenzyl bromide,BrCc1ccc(I)cc1,353.2
p-iodophenetole,CCOc1ccc(I)cc1,302.2
p-iodophenol,Oc1ccc(I)cc1,367.2
p-iodophenyl acetate,CC(=O)Oc1ccc(I)cc1,305.2
p-iodotoluene,Cc1ccc(I)cc1,306.7
piperidine,C1CCNCC1,262.1
Pirimicarb,CN(C)C(=O)Oc1nc(nc(C)c1C)N(C)C,363.7
p-isopropylbenzoic acid,CC(C)c1ccc(cc1)C(O)=O,391.2
pivaldehyde,CC(C)(C)C=O,272.1
p-methacryloyloxybenzoic acid,CC(=C)C(=O)Oc1ccc(cc1)C(O)=O,455.0
p-methoxyacetanilide,COc1ccc(NC(C)=O)cc1,400.3
p-methoxyacetophenone,COc1ccc(cc1)C(C)=O,312.2
p-methoxyaniline,COc1ccc(N)cc1,330.2
p-methoxybenzaldehyde,COc1ccc(C=O)cc1,275.2
p-methoxybenzaldoxime,COc1ccc(cc1)C=NO,405.2
p-methoxybenzamide,COc1ccc(cc1)C(N)=O,436.2
p-methoxyphenol,COc1ccc(O)cc1,329.2
p-methoxyphenyl acetate,COc1ccc(OC(C)=O)cc1,327.2
p-methylacetophenone,CC(=O)c1ccc(C)cc1,301.2
p-methylbenzyl alcohol,Cc1ccc(CO)cc1,333.2
p-n-hexyloxybenzylideneaniline,CCCCCCOc1ccc(cc1)N=Cc2ccccc2,321.6