NAME,SMILES,Tm (K)
(+)2-butanol,CCC(C)O,177.4
"(2,4,5-trichlorophenoxy)acetic acid",OC(=O)COc1cc(Cl)c(Cl)cc1Cl,431.2
"(2,4-dichlorophenoxy)acetic acid",OC(=O)COc1ccc(Cl)cc1Cl,412.5
(4-chloro-2-methylphenoxy)acetic acid,Cc1cc(Cl)ccc1OCC(O)=O,392.9
(4-chloro-o-tolyloxy)acetic acid,Cc1ccc(Cl)cc1OCC(O)=O,392.9
"1,2,5,6-tetracarbomethoxynaphthalene",COC(=O)c1ccc2c(ccc(C(=O)OC)c2C(=O)OC)c1C(=O)OC,470.2
"1,2,5-tricarbomethoxynaphthalene",COC(=O)c1cccc2c1ccc(C(=O)OC)c2C(=O)OC,363.0
"1,2,6,7-tetracarbomethoxynaphthalene",COC(=O)c1ccc2cc(C(=O)OC)c(cc2c1C(=O)OC)C(=O)OC,407.2
"1,2,6-tricarbomethoxynaphthalene",COC(=O)c1ccc2c(ccc(C(=O)OC)c2C(=O)OC)c1,416.7
"1,2,7,8-tetrahydroxyoctane",OCC(O)CCCCC(O)CO,352.2
"1,2,7-tricarbomethoxynaphthalene",COC(=O)c1ccc2ccc(C(=O)OC)c(C(=O)OC)c2c1,427.2
"1,2,8-tricarbomethoxynaphthalene",COC(=O)c1cccc2ccc(C(=O)OC)c(C(=O)OC)c12,366.7
"1,2:3,4-dibenzanthracene",c1ccc2cc3c4ccccc4c5ccccc5c3cc2c1,553.5
"1,2:3,4-dibenzopyrene",c1ccc2c(c1)cc3ccc4cccc5c6ccccc6c2c3c45,501.2
"1,2:4,5-dibenzopyrene",c1ccc2c(c1)cc3c4ccccc4c5cccc6ccc2c3c56,520.2
"1,2:5,6-dibenzanthracene",c1ccc2c(c1)ccc3cc4c(ccc5ccccc45)cc23,544.2
"1,2-benzanthracene",c1ccc2cc3c(ccc4ccccc34)cc2c1,434.3
"1,2-benzofluorene",C1c2ccccc2c3ccc4ccccc4c13,462.8
"1,2-benzopyrene",c1ccc2c(c1)c3cccc4ccc5cccc2c5c34,454.4
"1,2-butadiene",C[CH]=[C]=[CH2],136.9
"1,2-diamino-2-methylpropane",CC(C)(N)CN,256.1
"1,2-diaminopropane",CC(N)CN,236.5
"1,2-dibenzoylethane",O=C(CCC(=O)c1ccccc1)c2ccccc2,418.6
"1,2-dibromo-1,1-difluoroethane",FC(F)(Br)CBr,206.3
"1,2-dibromobenzene",Brc1ccccc1Br,275.0
"1,2-dibromoethane",BrCCBr,283.0
"1,2-dibromotetrafluoroethane",FC(F)(Br)C(F)(F)Br,162.8
"1,2-dicarbomethoxybenzene",COC(=O)c1ccccc1C(=O)OC,274.2
"1,2-dicarbomethoxynaphthalene",COC(=O)c1ccc2ccccc2c1C(=O)OC,358.2
"1,2-dichlorobenzene",Clc1ccccc1Cl,256.5
"1,2-dichloroethane",ClCCCl,237.2
"1,2-dichloropropane",CC(Cl)CCl,172.7
"1,2-dichloro-tetrafluoroethane",FC(F)(Cl)C(F)(F)Cl,180.6
"1,2-dicyanobenzene",N#Cc1ccccc1C#N,414.1
"1,2-difluoro-2,2-dichloroethane",FCC(F)(Cl)Cl,163.0
"1,2-difluorobenzene",Fc1ccccc1F,226.0
"1,2-dihydro-6-neopentyl-2-oxonicotinic acid",CC(C)(C)CC1=CC=C(C(O)=O)C(=O)N1,469.2
"1,2-dihydroxybenzene",Oc1ccccc1O,376.9
"1,2-diiodobenzene",Ic1ccccc1I,296.6
"1,2'-dinaphthylmethane",C1=CC=C2C=C(C=CC2=C1)CC3=CC=CC4=CC=CC=C43,369.6
"1,2-dinitrobenzene",[O-][N+](=O)c1ccccc1[N+]([O-])=O,396.1
"1,2-diphenyl-2-(N-piperidinyl)-1-ethanone",O=C(C(N1CCCCC1)c2ccccc2)c3ccccc3,349.2
"1,2-diphenylethane",C(Cc1ccccc1)c2ccccc2,324.3
"1,2-pentadiene",CC[CH]=[C]=[CH2],135.9
"1,3,3-trinitroazetidine",[O-][N+](=O)N1CC(C1)([N+]([O-])=O)[N+]([O-])=O,375.5
"1,3,5,5-tetranitro-1,3-diazacyclohexane",[O-][N+](=O)N1CN(CC(C1)([N+]([O-])=O)[N+]([O-])=O)[N+]([O-])=O,430.0
"1,3,5,7-tetroxane",C1OCOCOCO1,385.0
"1,3,5-tricarbomethoxynaphthalene",COC(=O)c1cc(C(=O)OC)c2cccc(C(=O)OC)c2c1,402.7
"1,3,5-trichloro-2,4,6-trifluorobenzene",Fc1c(Cl)c(F)c(Cl)c(F)c1Cl,335.0
"1,3,5-trichlorobenzene",Clc1cc(Cl)cc(Cl)c1,336.7
"1,3,5-trimethylbenzene",Cc1cc(C)cc(C)c1,228.4
"1,3,5-trinitro-1,3,5-triazacyclohexane",[O-][N+](=O)N1CN(CN(C1)[N+]([O-])=O)[N+]([O-])=O,478.2
"1,3,5-trinitrobenzene",[O-][N+](=O)c1cc(cc(c1)[N+]([O-])=O)[N+]([O-])=O,380.3
"1,4-dihydroxybutane",OCCCCO,293.6
"1,4-diiodobenzene",Ic1ccc(I)cc1,402.0
"1,4-dimethylnaphthalene",Cc1ccc(C)c2ccccc12,279.9
"1,4-dinitrobenzene",[O-][N+](=O)c1ccc(cc1)[N+]([O-])=O,446.7
"1,4-dioxane",C1COCCO1,284.1
"1,4-dioxane-2,5-dione",O=C1COC(=O)CO1,356.2
"1,4-di-tert-butylbenzene",CC(C)(C)c1ccc(cc1)C(C)(C)C,341.5
"1,4-dithiane",C1CSCCS1,384.6
"1,4-pentadiene",C=CCC=C,124.3
"1,5-cyclooctanedione",O=C1CCCC(=O)CCC1,341.2
"1,5-dicarbomethoxynaphthalene",COC(=O)c1cccc2c(cccc12)C(=O)OC,392.0
"1,5-dichloro-3-oxapentane",ClCCOCCCl,226.5
"1,5-dimethyltetrazole",Cn1nnnc1C,349.0
"1,5-dinitro-3-nitroso-1,3,5-triazacycloheptane",[O-][N+](=O)N1CCN(CN(C1)N=O)[N+]([O-])=O,440.0
"1,5-pentanediol",OCCCCCO,248.0
"1,6-dicarbomethoxynaphthalene",COC(=O)c1ccc2c(cccc2C(=O)OC)c1,371.8
"1,6-hexanediol",OCCCCCCO,314.7
"1,7-diacetoxy-2,4,6-trinitro-2,4,6-triazaheptane",CC(=O)OCN(CN(CN(COC(C)=O)[N+]([O-])=O)[N+]([O-])=O)[N+]([O-])=O,422.5
"1,7-dicarbomethoxynaphthalene",COC(=O)c1ccc2cccc(C(=O)OC)c2c1,363.2
"1,7-heptanediol",OCCCCCCCO,295.2
"1,8-dimethylnaphthalene",Cc1cccc2cccc(C)c12,336.3
"1,8-octanediol",OCCCCCCCCO,332.8
"1,9-nonanediol",OCCCCCCCCCO,319.6
"1-[3,5-di-tert-butyl-4-hydroxyphenyl]-5-hexyn-1-one",CC(C)(C)c1cc(cc(c1O)C(C)(C)C)C(=O)CCCC#C,342.2
10H-phenothiazine,N1c2ccccc2Sc3ccccc13,458.2
10-nonadecanone,CCCCCCCCCC(=O)CCCCCCCCC,330.0
10-octadecynoic acid,CCCCCCCC#CCCCCCCCCC(O)=O,319.0
11-cyclohexyleicosane,CCCCCCCCCCC(CCCCCCCCC)C1CCCCC1,269.9
11-heneicosanone,CCCCCCCCCCC(=O)CCCCCCCCCC,336.7
11-n-decylheneicosane,CCCCCCCCCCC(CCCCCCCCCC)CCCCCCCCCC,282.3
11-octadecynoic acid,CCCCCCC#CCCCCCCCCCC(O)=O,320.0
11-phenyleicosane,CCCCCCCCCCC(CCCCCCCCC)c1ccccc1,294.3
12-octadecynoic acid,CCCCCC#CCCCCCCCCCCC(O)=O,320.0
12-tricosanone,CCCCCCCCCCCC(=O)CCCCCCCCCCC,342.2
13-octadecynoic acid,CCCCC#CCCCCCCCCCCCC(O)=O,322.0
14-octadecynoic acid,CCCC#CCCCCCCCCCCCCC(O)=O,337.0
16-octadecynoic acid,CC#CCCCCCCCCCCCCCCC(O)=O,347.0
17-alpha-hydroxyprogesterone caproate,CCCCCC(=O)O[C@@]1(CC[C@H]2C3CCC4=CC(=O)CCC4(C)[C@H]3CCC12C)C(C)=O,393.2
17-methyltestosterone,C[C@]1(O)CC[C@H]2[C@@H]3CCC4=CC(=O)CC[C@]4(C)[C@H]3CC[C@]12C,438.0
17-octadecynoic acid,OC(=O)CCCCCCCCCCCCCCCC#C,340.0
1-acetoxynaphthalene,CC(=O)Oc1cccc2ccccc12,319.2
1-acetyl-2-naphthol,CC(=O)c1c(O)ccc2ccccc12,337.0
"1-amino-4-hydroxy-2-phenoxy-9,10-anthracenedione",Nc1c(Oc2ccccc2)cc(O)c3C(=O)c4ccccc4C(=O)c13,458.2
1-aminoanthraquinone,Nc1cccc2C(=O)c3ccccc3C(=O)c12,524.2
1-aminopropane,CCCN,188.4
1-benzoyl-2-naphthol,Oc1ccc2ccccc2c1C(=O)c3ccccc3,414.1
"1-bromo-2-chloro-1,1,2-trifluoroethane",FC(Cl)C(F)(F)Br,146.2
1-bromo-2-chloroethane,ClCCBr,256.4
1-bromobutane,CCCCBr,160.4
1-bromodocosane,CCCCCCCCCCCCCCCCCCCCCCBr,317.2
1-bromoheptane,CCCCCCCBr,214.4
1-bromohexane,CCCCCCBr,188.1
1-bromonaphthalene,Brc1cccc2ccccc12,271.4
1-bromononane,CCCCCCCCCBr,243.2
1-bromooctane,CCCCCCCCBr,218.2
1-bromopentane,CCCCCBr,185.1
1-bromotricosane,CCCCCCCCCCCCCCCCCCCCCCCBr,339.6
1-bromoundecane,CCCCCCCCCCCBr,263.3
1-butene,CCC=C,87.8
1-butyne,CCC#C,147.4
"1-chloro-2-(2,2,2-trichloro-1-(4-chlorophenyl)ethyl)benzene",Clc1ccc(cc1)C(c2ccccc2Cl)C(Cl)(Cl)Cl,345.8
1-chlorodibenzodioxin,Clc1cccc2Oc3ccccc3Oc12,378.2
1-chloronaphthalene,Clc1cccc2ccccc12,270.7
1-cyclohexyl-1-phenyldodecane,CCCCCCCCCCCC(C1CCCCC1)c2ccccc2,275.8
1-decanethiol,CCCCCCCCCCS,247.9
1-decanol,CCCCCCCCCCO,280.1
1-decene,CCCCCCCCC=C,206.9
1-deoxy-D-glucopyranose,OC[C@H]1OC[C@H](O)[C@@H](O)[C@@H]1O,403.2
1-docosanol,CCCCCCCCCCCCCCCCCCCCCCO,345.2
1-dodecene,CCCCCCCCCCC=C,237.9
"1H-1,2,4-triazol-3-amine",Nc1n[nH]cn1,428.3
1-heptanethiol,CCCCCCCS,229.9
1-heptanol,CCCCCCCO,240.4
1-heptene,CCCCCC=C,154.3
1-hexacosanol,CCCCCCCCCCCCCCCCCCCCCCCCCCO,351.7
1-hexadecanol,CCCCCCCCCCCCCCCCO,322.2
1-hexadecene,CCCCCCCCCCCCCCC=C,277.5
1-hexanethiol,CCCCCCS,192.6
1-hexanol,CCCCCCO,225.8
1-hexene,CCCCC=C,133.4
1-iodonaphthalene,Ic1cccc2ccccc12,280.0
1-methyl-7-isopropylphenanthrene,CC(C)c1ccc2c(ccc3c(C)cccc23)c1,369.0
"1-methyl-9H-pyrido[3,4-b]indole",Cc1nccc2c1[nH]c3ccccc23,509.9
1-methylcyclohexanol,CC1(O)CCCCC1,299.2
1-methylcyclopentanol,CC1(O)CCCC1,310.2
1-methylnaphthalene,Cc1cccc2ccccc12,242.7
1-methyltetrazole,Cn1cnnn1,315.0
1-naphthaleneacetamide,NC(=O)Cc1cccc2ccccc12,455.5
1-naphthaleneacetic acid,OC(=O)Cc1cccc2ccccc12,405.3
1-naphthoic acid,OC(=O)c1cccc2ccccc12,435.2
1-naphthyl benzoate,O=C(Oc1cccc2ccccc12)c3ccccc3,329.2
1-naphthyl methylcarbamate,CNC(=O)Oc1cccc2ccccc12,416.3
1-naphthylamine,Nc1cccc2ccccc12,323.2
1-nitronaphthalene,[O-][N+](=O)c1cccc2ccccc12,329.9
"2,2-dimethyl-1-propanol",CC(C)(C)CO,264.0
"2,2-dimethylbutane",CCC(C)(C)C,174.3
"2,2-dimethylheptane",CCCCCC(C)(C)C,160.0
"2,2-dimethylpentane",CCCC(C)(C)C,148.1
"2,2-dimethylpropane",CC(C)(C)C,256.5
"2,2-dimethylpropanoic acid (pivalic acid)",CC(C)(C)C(O)=O.CC(C)(C)C(O)=O,309.1
"2,2-dinitro-1,3-propanediol",OCC(CO)([N+]([O-])=O)[N+]([O-])=O,341.2
"2,2-dinitropropane",CC(C)([N+]([O-])=O)[N+]([O-])=O,324.5
"2,2-dinitropropanol",CC(CO)([N+]([O-])=O)[N+]([O-])=O,366.7
"2,2-dinitropropyl-4,4-dinitropentanoate",CC(CCC(=O)OCC(C)([N+]([O-])=O)[N+]([O-])=O)([N+]([O-])=O)[N+]([O-])=O,370.8
"2,2'-methylenebis(3,4,6-trichlorophenol)",Oc1c(Cl)cc(Cl)c(Cl)c1Cc2c(O)c(Cl)cc(Cl)c2Cl,437.6
"2,3,4,5,6-pentachlorobiphenyl",Clc1c(Cl)c(Cl)c(c2ccccc2)c(Cl)c1Cl,397.6
"2,3,4,5,6-pentafluorotoluene",Cc1c(F)c(F)c(F)c(F)c1F,243.7
"2,3,4,5-tetrachlorobiphenyl",Clc1cc(c2ccccc2)c(Cl)c(Cl)c1Cl,363.9
"2,3,4-trimethylpentane",CC(C)C(C)C(C)C,163.6
"2,3,5,6-tetrachloro-2,5-cyclohexadiene-1,4-dione",ClC1=C(Cl)C(=O)C(=C(Cl)C1=O)Cl,567.2
"2,3,5-tricarbomethoxynaphthalene",COC(=O)c1cccc2cc(C(=O)OC)c(cc12)C(=O)OC,401.7
"2,3,5-triiodobenzoic acid",OC(=O)c1cc(I)cc(I)c1I,503.8
"2,3,6,7,10,11-hexakis(1-decynyl)triphenylene",CCCCCCCCC#Cc1cc2c(cc1C#CCCCCCCCC)c3cc(C#CCCCCCCCC)c(cc3c4cc(C#CCCCCCCCC)c(cc24)C#CCCCCCCCC)C#CCCCCCCCC,314.2
"2,3,6,7-tetracarbomethoxynaphthalene",COC(=O)c1cc2cc(C(=O)OC)c(cc2cc1C(=O)OC)C(=O)OC,458.2
"2,3,6-tricarbomethoxynaphthalene",COC(=O)c1ccc2cc(C(=O)OC)c(cc2c1)C(=O)OC,399.2
"2,3,6-trichlorobenzoic acid",OC(=O)c1c(Cl)ccc(Cl)c1Cl,402.7
"2,3,6-trichlorophenylacetic acid",OC(=O)Cc1c(Cl)ccc(Cl)c1Cl,432.3
"2,3-benzofluorene",C1c2ccccc2c3cc4ccccc4cc13,489.7
"2,3-dicarbomethoxynaphthalene",COC(=O)c1cc2ccccc2cc1C(=O)OC,324.2
"2,3-dichloro-1,4-naphthalenedione",ClC1=C(Cl)C(=O)c2ccccc2C1=O,469.0
"2,3-dichlorophenol",Oc1cccc(Cl)c1Cl,330.0
"2,3-dihydro-2,2-dimethylbenzofuran-7-yl methylcarbamate",CNC(=O)Oc1cccc2CC(C)(C)Oc12,426.2
"2,3-dihydro-6-methyl-5-phenylcarbamoyl-1,4-oxathiin-4,4-dioxide",CC1=C(C(=O)Nc2ccccc2)[S](=O)(=O)CCO1,401.5
"2,3-dimethyl-2,3-bis(4-tert-butylphenyl)butane",CC(C)(C)c1ccc(cc1)C(C)(C)C(C)(C)c2ccc(cc2)C(C)(C)C,493.0
"2,3-dimethyl-2,3-bis(phenylazo)butane",CC(C)(N=Nc1ccccc1)C(C)(C)N=Nc2ccccc2,342.3
"2,3-dimethyl-2,3-butanediol",CC(C)(O)C(C)(C)O,316.2
"2,3-dimethyl-2,3-diphenylbutane",CC(C)(c1ccccc1)C(C)(C)c2ccccc2,392.0
"2,3-dimethyl-2-butene",CC(C)=C(C)C,198.9
"2,3-dimethylbenzoic acid",Cc1cccc(C(O)=O)c1C,417.6
"2,3-dimethylbutane",CC(C)C(C)C,145.2
"2,3-dimethylnaphthalene",Cc1cc2ccccc2cc1C,378.0
"2,3-dimethylphenol",Cc1cccc(O)c1C,346.0
"2,3-dimethylpyridine",Cc1cccnc1C,258.6
"2,3-dinitrophenol",Oc1cccc(c1[N+]([O-])=O)[N+]([O-])=O,417.0
"2,3-dinitrotoluene",Cc1cccc(c1[N+]([O-])=O)[N+]([O-])=O,329.8
"2,3-pentadiene",C[CH]=[C]=[CH]C,147.5
"2,4,4-trimethyl-1-pentene",CC(=C)CC(C)(C)C,178.9
"2,4,4-trimethyl-2-pentene",CC(C)=CC(C)(C)C,166.0
"2,4,5-tribromostyrene",Brc1cc(Br)c(C=C)cc1Br,340.3
"2,4,5-trichlorobiphenyl",Clc1cc(Cl)c(cc1Cl)c2ccccc2,349.5
"2,4,5-trichlorophenol",Oc1cc(Cl)c(Cl)cc1Cl,340.3
"2,4,5-trimethylthiazole",Cc1sc(C)c(C)n1,240.7
"2,4,5-trinitrotoluene",Cc1cc(c(cc1[N+]([O-])=O)[N+]([O-])=O)[N+]([O-])=O,376.2
"2,4,6-tribromophenol",Oc1c(Br)cc(Br)cc1Br,366.2
"2,4,6-trichlorobiphenyl",Clc1cc(Cl)c(c(Cl)c1)c2ccccc2,334.3
"2,4,6-trimethyl-1,3,5-trioxane",CC1OC(C)OC(C)O1,285.7
"2,4,6-trimethylpyridine",Cc1cc(C)nc(C)c1,229.0
"2,4,6-trinitro-1,3-dimethylbenzene",Cc1c(cc(c(C)c1[N+]([O-])=O)[N+]([O-])=O)[N+]([O-])=O,455.4
"2,4,6-trinitroresorcinol",Oc1c(cc(c(O)c1[N+]([O-])=O)[N+]([O-])=O)[N+]([O-])=O,454.8
"2,4,6-trinitrotoluene",Cc1c(cc(cc1[N+]([O-])=O)[N+]([O-])=O)[N+]([O-])=O,352.2
"2,4,6-tri-tert-butylphenol",CC(C)(C)c1cc(c(O)c(c1)C(C)(C)C)C(C)(C)C,405.2
"2,4,7-trinitrofluoren-9-one",[O-][N+](=O)c1ccc2c(c1)C(=O)c3cc(cc(c23)[N+]([O-])=O)[N+]([O-])=O,449.2
"2,4-dibromophenol",Oc1ccc(Br)cc1Br,313.0
"2,4-dichlorophenol",Oc1ccc(Cl)cc1Cl,318.0
"2,4-dichlorophenyl 4-nitrophenyl ether",[O-][N+](=O)c1ccc(Oc2ccc(Cl)cc2Cl)cc1,342.0
"2,4-dimethylpentane",CC(C)CC(C)C,154.0
"2,4-dimethylpyridine",Cc1ccnc(C)c1,209.4
"2,4-dimethylpyrrole",Cc1[nH]cc(C)c1,268.5
"2,4-dimethylthiazole",Cc1scc(C)n1,222.9
"2,4-dinitrochlorobenzene",[O-][N+](=O)c1ccc(Cl)c(c1)[N+]([O-])=O,325.2
"2,4-dinitrophenol",Oc1ccc(cc1[N+]([O-])=O)[N+]([O-])=O,388.0
"2,4-dinitrotoluene",Cc1ccc(cc1[N+]([O-])=O)[N+]([O-])=O,343.3
"2,4-di-tert-butylthiazole",CC(C)(C)c1scc(n1)C(C)(C)C,258.2
"2,4-hexadiyne",CC#CC#CC,341.7
"2,5,8,11-tetraoxadodecane",COCCOCCOCCOC,229.3
"2,5,8-trioxanonane",COCCOCCOC,209.1
"2,5-dibutoxy-1,4-benzoquinone",CCCCOC1=CC(=O)C(=CC1=O)OCCCC,473.3
"2,5-dichlorophenol",Oc1cc(Cl)ccc1Cl,331.0
"2,5-diethoxy-1,4-benzoquinone",CCOC1=CC(=O)C(=CC1=O)OCC,459.3
"2,5-dimethylaniline",Cc1ccc(C)c(N)c1,279.0
"2,5-dimethylphenol",Cc1ccc(C)c(O)c1,348.0
"2,5-dimethylpyridine",Cc1ccc(C)nc1,259.1
"2,5-dimethylpyrrole",Cc1[nH]c(C)cc1,280.9
"2,5-dimethyltetrazole",Cn1nnc(C)n1,256.4
"2,5-dimethylthiophene",Cc1sc(C)cc1,210.6
"2,5-di-n-heptadecyloxy-1,4-benzoquinone",CCCCCCCCCCCCCCCCCOC1=CC(=O)C(=CC1=O)OCCCCCCCCCCCCCCCCC,395.3
"2,5-di-n-heptyloxy-1,4-benzoquinone",CCCCCCCOC1=CC(=O)C(=CC1=O)OCCCCCCC,406.2
"2,5-di-n-hexadecyloxy-1,4-benzoquinone",CCCCCCCCCCCCCCCCOC1=CC(=O)C(=CC1=O)OCCCCCCCCCCCCCCCC,394.2
"2,5-di-n-hexyloxy-1,4-benzoquinone",CCCCCCOC1=CC(=O)C(=CC1=O)OCCCCCC,412.1
"2,5-dinitrophenol",Oc1cc(ccc1[N+]([O-])=O)[N+]([O-])=O,381.0
"2,5-di-n-nonadecyloxy-1,4-benzoquinone",CCCCCCCCCCCCCCCCCCCOC1=CC(=O)C(=CC1=O)OCCCCCCCCCCCCCCCCCCC,396.2
"2,5-di-n-nonyloxy-1,4-benzoquinone",CCCCCCCCCOC1=CC(=O)C(=CC1=O)OCCCCCCCCC,402.7
"2,5-di-n-octyloxy-1,4-benzoquinone",CCCCCCCCOC1=CC(=O)C(=CC1=O)OCCCCCCCC,405.8
"2,5-di-n-pentadecyloxy-1,4-benzoquinone",CCCCCCCCCCCCCCCOC1=CC(=O)C(=CC1=O)OCCCCCCCCCCCCCCC,393.5
"2,5-di-n-undecyloxy-1,4-benzoquinone",CCCCCCCCCCCOC1=CC(=O)C(=CC1=O)OCCCCCCCCCCC,397.2
"2,5-dipentoxy-1,4-benzoquinone",CCCCCOC1=CC(=O)C(=CC1=O)OCCCCC,414.6
"2,5-dipropoxy-1,4-benzoquinone",CCCOC1=CC(=O)C(=CC1=O)OCCC,460.8
"2,6-dichloro-4-benzenamine",Nc1cc(Cl)cc(Cl)c1,467.2
"2,6-dichloro-4-nitroaniline",Nc1c(Cl)cc(cc1Cl)[N+]([O-])=O,466.8
"2,6-dichlorobenzonitrile",Clc1cccc(Cl)c1C#N,417.2
"2,6-dichlorobiphenyl",Clc1cccc(Cl)c1c2ccccc2,307.9
"2,6-dichlorophenol",Oc1c(Cl)cccc1Cl,340.0
"2,6-diisopropylphenol",CC(C)c1cccc(C(C)C)c1O,292.8
"2,6-dimethylnaphthalene",Cc1ccc2cc(C)ccc2c1,383.3
"2,6-dimethylphenol",Cc1cccc(C)c1O,318.9
"2,6-dimethylpyridine",Cc1cccc(C)n1,267.1
"2,6-dinitrochlorobenzene",[O-][N+](=O)c1cccc(c1Cl)[N+]([O-])=O,361.2
"2,6-dinitro-N,N-dipropyl-4-(trifluoromethyl)benzenamine",CCCN(CCC)c1c(cc(cc1[N+]([O-])=O)C(F)(F)F)[N+]([O-])=O,321.4
"2,6-dinitrophenol",Oc1c(cccc1[N+]([O-])=O)[N+]([O-])=O,336.0
"2,6-dinitrotoluene",Cc1c(cccc1[N+]([O-])=O)[N+]([O-])=O,327.5
"2,6-di-tert-butyl-4-methoxyphenol",COc1cc(c(O)c(c1)C(C)(C)C)C(C)(C)C,374.4
"2,6-di-tert-butyl-4-methylphenol",Cc1cc(c(O)c(c1)C(C)(C)C)C(C)(C)C,343.7
"2,6-di-tert-butylphenol",CC(C)(C)c1cccc(c1O)C(C)(C)C,310.7
"2,7-dicarbomethoxynaphthalene",COC(=O)c1ccc2ccc(cc2c1)C(=O)OC,410.2
"2,7-dimethylnaphthalene",Cc1ccc2ccc(C)cc2c1,368.8
"2-[(trichloromethyl)thio]-1H-isoindole-1,3(2H)-dione",ClC(Cl)(Cl)SN1C(=O)c2ccccc2C1=O,454.2
2-[[3-(trifluoromethyl)phenyl]amino]-3-pyridinecarboxylic acid,OC(=O)c1cccnc1Nc2cccc(c2)C(F)(F)F,476.0
"2-[[4-chloro-6-(ethylamino)-1,3,5-triazin-2-yl]amino]-2-methylpropanenitrile",CCNc1nc(Cl)nc(NC(C)(C)C#N)n1,437.9
2-acetoxynaphthalene,CC(=O)Oc1ccc2ccccc2c1,342.2
2-acetyl-1-naphthol,CC(=O)c1ccc2ccccc2c1O,371.8
"2-acetylamino-9-[(2-hydroxyethoxy)methyl]-1,9-dihydro-6H-purin-6-one",CC(=O)NC1=Nc2n(COCCO)cnc2C(=O)N1,490.2
2-acetylamino-9-[(2-hydroxyethoxy)methyl]-9H-purine,CC(=O)Nc1ncc2ncn(COCCO)c2n1,454.2
"2-amino-2-hydroxymethylpropane-1,3-diol",NC(CO)(CO)CO,407.5
"2-amino-2-methylpropane-1,3-diol",CC(N)(CO)CO,384.0
"2-amino-9-[(2-acetoxyethoxy)methyl]-1,9-dihydro-6H-purin-6-one",CC(=O)OCCOCn1cnc2C(=O)NC(=Nc12)N,515.2
"2-amino-9-[(2-hydroxyethoxy)methyl]-1,9-dihydro-6H-purin-6-one",NC1=Nc2n(COCCO)cnc2C(=O)N1,528.2
2-amino-9-[(2-hydroxyethoxy)methyl]-9H-purine,Nc1ncc2ncn(COCCO)c2n1,462.2
2-aminobenzoic acid,Nc1ccccc1C(O)=O,417.8
2-aminobiphenyl,Nc1ccccc1c2ccccc2,322.3
2-aminopropane,CC(C)N,178.0
2-benzoyl-1-naphthol,Oc1c(ccc2ccccc12)C(=O)c3ccccc3,343.9
"2-bromo-2-chloro-1,1,1-trifluoroethane",FC(F)(F)C(Cl)Br,154.7
2-bromobutane,CCC(C)Br,160.3
2-bromonaphthalene,Brc1ccc2ccccc2c1,329.0
2-bromopropane,CC(C)Br,184.1
2-bromothiophene,Brc1sccc1,203.9
2-butanethiol,CCC(C)S,133.0
2-butanol,CCC(C)O,184.7
2-butanone,CCC(C)=O,186.5
2-butyne,CC#CC,240.9
2-carbomethoxynaphthalene,COC(=O)c1ccc2ccccc2c1,350.2
2-chloro-1-(3-ethoxy-4-nitrophenoxy)-4-(trifluoromethyl)benzene,CCOc1cc(Oc2ccc(cc2Cl)C(F)(F)F)ccc1[N+]([O-])=O,358.8
2-chloro-2-nitropropane,CC(C)(Cl)[N+]([O-])=O,261.6
2-chloro-6-(trichloromethyl)pyridine,Clc1cccc(n1)C(Cl)(Cl)Cl,337.8
2-chloro-9-(3-dimethylaminopropylidene)-10-thioxanthene,CN(C)CCC=C1c2ccccc2Sc3ccc(Cl)cc13,370.3
2-chloroanthraquinone,Clc1ccc2C(=O)c3ccccc3C(=O)c2c1,483.0
2-chlorobenzoic acid,OC(=O)c1ccccc1Cl,413.4
2-chlorobiphenyl,Clc1ccccc1c2ccccc2,304.9
2-chlorodibenzodioxin,Clc1ccc2Oc3ccccc3Oc2c1,362.2
2-chloroethylphosphonic acid,O[P](O)(=O)CCCl,347.9
"2-chloro-n-(2,6-diethylphenyl)-n-(methoxymethyl)acetamide",CCc1cccc(CC)c1N(COC)C(=O)CCl,315.9
2-chloronaphthalene,Clc1ccc2ccccc2c1,332.0
2-chloro-N-isopropylacetamide,CC(C)NC(=O)CCl,351.3
2-chlorophenol,Oc1ccccc1Cl,283.0
2-chloropropane,CC(C)Cl,156.0
2-chlorothiophene,Clc1sccc1,201.3
2-cyano-2-methylpropane,CC(C)(C)C#N,292.1
"2-cyclohexyl-4,6-dinitrophenol",Oc1c(cc(cc1[N+]([O-])=O)[N+]([O-])=O)C2CCCCC2,378.7
2-cyclohexylcyclohexanone,O=C1CCCCC1C2CCCCC2,277.0
2-deoxy-2-fluoro-D-glucopyranose,OC[C@H]1OC(O)[C@H](F)[C@@H](O)[C@@H]1O,427.2
2-deoxy-D-glucopyranose,OC[C@H]1OC(O)C[C@@H](O)[C@@H]1O,398.7
2-ethoxyisonitrosoacetanilide,CCOc1ccccc1NC(=O)/C=N/O,405.0
"2-ethyl-2-diphenylmethyl-1,3-cyclopentanedione",CCC1(C(c2ccccc2)c3ccccc3)C(=O)CCC1=O,382.2
"2-fluorenyl-2-methyl-1,3-cyclohexanedione",CC1(C(=O)CCCC1=O)c2cccc3c2Cc4ccccc34,448.2
"2-fluorenyl-2-methyl-1,3-cyclopentanedione",CC1(C(=O)CCC1=O)c2cccc3c2Cc4ccccc34,395.2
2-fluorotoluene,Cc1ccccc1F,210.7
2-heneicosanone,CCCCCCCCCCCCCCCCCCCC(C)=O,333.9
2-heptanone,CCCCCC(C)=O,237.7
2-hexanone,CCCCC(C)=O,217.7
2-hydroxybenzoic acid,OC(=O)c1ccccc1O,431.8
"2-hydroxymethyl-2-methyl-1,3-propanediol",CC(CO)(CO)CO,470.0
2-iodobenzoic acid,OC(=O)c1ccccc1I,435.1
2-iodonaphthalene,Ic1ccc2ccccc2c1,327.6
2-isopropoxyphenyl N-methylcarbamate,CNC(=O)Oc1ccccc1OC(C)C,363.1
"2-methoxy-4H-1,3,2-benzodioxaphosphorin 2-sulfide",CO[P]1(=S)OCc2ccccc2O1,327.9
"2-methyl-1,3-butadiene",CC(=C)C=C,127.3
2-methyl-1-butene,CCC(C)=C,135.6
2-methyl-1-phenyl-2-(N-piperidinyl)-1-propanone,CC(C)(N1CCCCC1)C(=O)c2ccccc2,310.2
2-methyl-1-propanol,CC(C)CO,171.2
2-methyl-2-(methylsulfonyl)propanal oxime,CC(C)(C=NO)[S](C)(=O)=O,382.0
2-methyl-2(methylthio)propionaldehyde O-methylcarbamoyloxime,CNC(=O)ON=CC(C)(C)SC,374.0
2-methyl-2-butanethiol,CCC(C)(C)S,146.1
2-methyl-2-butanol,CCC(C)(C)O,264.0
2-methyl-2-butene,CC=C(C)C,139.4
"2-methyl-2-diphenylmethyl-1,3-cyclopentanedione",CC1(C(c2ccccc2)c3ccccc3)C(=O)CCC1=O,394.2
"2-methyl-2-nitro-1,3-propandiol",CC(CO)(CO)[N+]([O-])=O,424.0
2-methyl-2-nitro-1-propanol,CC(C)(CO)[N+]([O-])=O,361.0
"2-methyl-2-nitropropyl-4,4,4-trinitrobutyrate",CC(CC(C)(CC([N+]([O-])=O)([N+]([O-])=O)[N+]([O-])=O)C([O-])=O)[N+]([O-])=O,349.4
"2-methyl-4,6-dinitrophenol",Cc1cc(cc(c1O)[N+]([O-])=O)[N+]([O-])=O,359.3
2-methylbutane,CCC(C)C,113.4
2-methyldecane,CCCCCCCCC(C)C,224.3
2-methylfuran,Cc1occc1,181.9
2-methylheptane,CCCCCC(C)C,164.2
2-methylhexane,CCCCC(C)C,154.9
2-methylnaphthalene,Cc1ccc2ccccc2c1,307.7
2-methylnonane,CCCCCCCC(C)C,198.8
2-methylpentane,CCCC(C)C,119.6
2-methylpiperidine,CC1CCCCN1,269.4
2-methylpyridine,Cc1ccccn1,206.5
2-methyltetrazole,Cn1ncnn1,286.0
2-methylthiazole,Cc1sccn1,248.6
2-methylthiophene,Cc1sccc1,207.8
2-naphthoic acid,OC(=O)c1ccc2ccccc2c1,460.2
2-naphthyl benzoate,O=C(Oc1ccc2ccccc2c1)c3ccccc3,381.2
2-naphthylamine,Nc1ccc2ccccc2c1,386.2
2-n-butyl-5-(4-bromobiphenyl-4-yl)thiophene,CCCCc1sc(cc1)C2(Br)CC=C(C=C2)c3ccccc3,501.4
2-nitro-1-(4-nitrophenoxy)-4-(trifluoromethyl)benzene,[O-][N+](=O)c1ccc(Oc2ccc(cc2[N+]([O-])=O)C(F)(F)F)cc1,364.6
2-nitro-5-methylphenol,Cc1ccc(c(O)c1)[N+]([O-])=O,302.8