NAME,SMILES,Tm (K)
coumarin,O=C1Oc2ccccc2C=C1,342.1
cyanamide,NC#N,317.2
Cyanazine,CCNc1nc(Cl)nc(NC(C)(C)C#N)n1,440.2
cyanoacetamide,NC(=O)CC#N,387.3
cyanocyclohexane,N#CC1CCCCC1,285.1
cyanogen,N#CC#N,245.3
Cycloate,CCSC(=O)N(CC)C1CCCCC1,284.7
cyclobutane,C1CCC1,182.4
cycloheptane,C1CCCCCC1,265.1
cycloheptanol,OC1CCCCCC1,280.3
cycloheptatriene,C1C=CC=CC=C1,198.0
cycloheptene,C1CCC=CCC1,217.0
cyclohexane,C1CCCCC1,279.8
cyclohexanethiol,SC1CCCCC1,189.6
cyclohexanol,OC1CCCCC1,297.0
cyclohexanone,O=C1CCCCC1,245.2
cyclohexanone oxime,ON=C1CCCCC1,273.4
cyclohexene,C1CCC=CC1,169.7
cyclohexylbenzene,C1CCC(CC1)c2ccccc2,280.5
"cycloocta-1,5-diene",C1CC=CCCC=C1,204.0
cyclooctane,C1CCCCCCC1,288.0
cyclooctanol,OC1CCCCCCC1,295.0
cyclooctatetraene,C1=CC=CC=CC=C1,268.5
cyclooctene,C1CCCC=CCC1,259.2
cyclopentadiene,C1C=CC=C1,176.6
cyclopentane,C1CCCC1,179.7
cyclopentanethiol,SC1CCCC1,155.4
cyclopentanol,OC1CCCC1,257.4
cyclopentene,C1CC=CC1,138.1
cyclopentyl methyl sulfide,CSC1CCCC1,169.9
cyclopentylamine,NC1CCCC1,190.4
cyclopropane,C1CC1,145.6
cyclopropylamine,NC1CC1,237.8
Cyprazine,CCSC(=O)N(CC)CC.CC(C)Nc1nc(Cl)nc(NC2CC2)n1,440.2
Dacthal,COC(=O)c1c(Cl)c(Cl)c(c(Cl)c1Cl)C(=O)OC,428.2
Daimuron,Cc1ccc(NC(=O)NC(C)(C)c2ccccc2)cc1,476.2
decachlorobiphenyl,Clc1c(Cl)c(Cl)c(c(Cl)c1Cl)c2c(Cl)c(Cl)c(Cl)c(Cl)c2Cl,577.7
decacyclene,c1cc2cccc3c2c(c1)c4c3c5c6cccc7cccc(c67)c5c8c9cccc%10cccc(c9%10)c48,666.0
decanal,CCCCCCCCCC=O,268.2
decanoic acid,CCCCCCCCCC(O)=O,304.5
decyl methacrylate,CCCCCCCCCCOC(=O)C(C)=C,250.7
deoxycorticosterone,C[C@]12CC[C@H]3[C@@H](CCC4=CC(=O)CC[C@]34C)[C@@H]1CC[C@@H]2C(=O)CO,414.0
deoxycorticosterone acetate,CC(=O)OCC(=O)[C@H]1CC[C@H]2[C@@H]3CCC4=CC(=O)CC[C@]4(C)[C@H]3CC[C@]12C,430.0
Desmetryn,CNc1nc(NC(C)C)nc(SC)n1,358.2
desoxycorticosterone pivalate,CC(C)(C)C(=O)OCC(=O)C1CCC2C3CCC4=CC(=O)CCC4(C)C3CCC12C,476.2
dexamethasone,C[C@@H]1C[C@H]2[C@@H]3CCC4=CC(=O)C=C[C@]4(C)[C@@]3(F)[C@@H](O)C[C@]2(C)[C@@]1(O)C(=O)CO,539.0
Diallate,CC(C)N(C(C)C)C(=O)SC\C(Cl)=C\Cl,298.2
diaminoethane,CC(N)N,284.2
"dibenzo[c,e][1,2]dithiin",S1Sc2ccccc2c3ccccc13,386.2
dibenzodioxin,O1c2ccccc2Oc3ccccc13,395.7
dibenzofuran,o1c2ccccc2c3ccccc13,355.7
dibenzothiophene,s1c2ccccc2c3ccccc13,371.0
dibromodichloromethane,ClC(Cl)(Br)Br,294.4
dibromodifluoroethylene,FC(F)=C(Br)Br,162.8
Dibutyl phthalate,CCCCOC(=O)c1ccccc1C(=O)OCCCC,238.2
dichloroacetic acid,OC(=O)C(Cl)Cl,286.5
dichloromethane,ClCCl,178.2
dicyanomethane,N#CCC#N,305.0
dienestrol,C/C=C(c1ccc(O)cc1)/C(=C/C)c2ccc(O)cc2,500.2
diethyl disulfide,CCSSCC,171.6
diethyl ether,CCOCC,156.9
diethyl o-phthalate,CCOC(=O)c1ccccc1C(=O)OCC,269.9
Diethyl phthalate,CCOC(=O)c1ccccc1C(=O)OCC,270.2
diethyl sulfide,CCSCC,169.2
diethyl terephthalate,CCOC(=O)c1ccc(cc1)C(=O)OCC,317.2
diethylstilbestrol,CC\C(c1ccc(O)cc1)=C(CC)/c2ccc(O)cc2,442.0
Difenoxuron,COc1ccc(Oc2ccc(NC(=O)N(C)C)cc2)cc1,412.2
diflubenzuron,Fc1cccc(F)c1C(=O)NC(=O)Nc2ccc(Cl)cc2,512.2
difluoromethane,FCF,136.4
dihydroxyethane,CC(O)O,260.6
diiodomethane,ICI,279.2
diisopropyl ketone,CC(C)C(=O)C(C)C,204.8
diisopropyl sulfide,CC(C)SC(C)C,195.1
Dimepiperate,CC(C)(SC(=O)N1CCCCC1)c2ccccc2,312.2
Dimetan,CN(C)C(=O)OC1=CC(=O)CC(C)(C)C1,318.7
Dimethametryn,CCNc1nc(NC(C)C(C)C)nc(SC)n1,338.2
dimethoxymethane,COCOC,168.0
"dimethyl (2,2,2-trichloro-1-hydroxyethyl)phosphonate",CO[P](=O)(OC)C(O)C(Cl)(Cl)Cl,384.0
dimethyl amine,CNC,181.0
dimethyl ether,COC,131.7
dimethyl fumarate,COC(=O)/C=C/C(=O)OC,375.0
dimethyl maleate,COC(=O)\C=C/C(=O)OC,254.0
dimethyl oxalate,COC(=O)C(=O)OC,327.6
Dimethyl phthalate,COC(=O)c1ccccc1C(=O)OC,275.2
dimethyl sulfide,CSC,174.9
dimethyl sulfoxide,C[S](C)=O,291.7
"dimethyl-2,3,5,6-tetrachloro-1,4-benzenedicarboxylate",COC(=O)c1c(Cl)c(Cl)c(c(Cl)c1Cl)C(=O)OC,431.7
dimethylaminoethyl methacrylate,CN(C)CCOC(=O)C(C)=C,237.7
dimethyldisulfide,CSSC,188.4
dimethylsulfone,C[S](C)(=O)=O,382.0
di-n-butyl succinate,CCCCOC(=O)CCC(=O)OCCCC,244.1
di-n-butyl sulfide,CCCCSCCCC,198.1
diphenyl ether,O(c1ccccc1)c2ccccc2,300.0
Diphenyl phthalate,O=C(Oc1ccccc1)c2ccccc2C(=O)Oc3ccccc3,345.2
diphenyl sulfone,O=[S](=O)(c1ccccc1)c2ccccc2,398.2
diphenylacetic acid,OC(=O)C(c1ccccc1)c2ccccc2,420.4
diphenylacetylene,c1ccc(cc1)C#Cc2ccccc2,334.0
diphenylamine,N(c1ccccc1)c2ccccc2,326.2
diphenylcarbinol,OC(c1ccccc1)c2ccccc2,338.5
diphenylmethane,C(c1ccccc1)c2ccccc2,298.3
diphenylsulfide,S(c1ccccc1)c2ccccc2,258.0
Dipropalin,CCCN(CCC)c1c(cc(C)cc1[N+]([O-])=O)[N+]([O-])=O,353.2
Dipropetryn,CCSc1nc(NC(C)C)nc(NC(C)C)n1,378.2
dipropyl disulfide,CCCSSCCC,187.7
dipropyl sulfide,CCCSCCC,170.4
diuron,CN(C)C(=O)Nc1ccc(Cl)c(Cl)c1,432.2
d-limonene,CC(=C)C1CCC(=CC1)C,199.2
dodecane,CCCCCCCCCCCC,263.6
dodecanedioic acid,OC(=O)CCCCCCCCCCC(O)=O,402.5
dodecanoic acid,CCCCCCCCCCCC(O)=O,316.9
dodecanol,CCCCCCCCCCCCO,300.2
dotriacontane,CCCCCCCCCCCCCCCCCCCCCCCCCCCCCCCC,343.5
dromostanolone propionate,CCC(=O)OC1CCC2C3CCC4CC(=O)C(C)CC4(C)C3CCC12C,399.2
dulcitol,OCC(O)C(O)C(O)C(O)CO,460.3
d-valerolactone,C1CCOC(=O)C1,263.0
dydrogesterone,CC(=O)[C@H]1CC[C@H]2[C@@H]3C=CC4=CC(=O)CC[C@@]4(C)[C@@H]3CC[C@]12C,442.2
E-3-chloro-2-butenoic acid,CC(/Cl)=C\C(O)=O,333.7
e-caprolactam,C1CCC(=O)NCC1,343.3
e-caprolactone,O=C1CCCCCO1,272.0
eicosanoic acid,CCCCCCCCCCCCCCCCCCCC(O)=O,348.2
esmolol,COC(=O)CCc1ccc(OCC(O)CNC(C)C)cc1,323.2
estradiol,C[C@]12CC[C@H]3[C@@H](CCc4cc(O)ccc34)[C@@H]1CC[C@@H]2O,452.0
estriol,C[C@]12CC[C@H]3[C@@H](CCc4cc(O)ccc34)[C@@H]1C[C@@H](O)[C@@H]2O,555.0
estrone,C[C@]12CC[C@H]3[C@@H](CCc4cc(O)ccc34)[C@@H]1CCC2=O,533.2
Ethalfluralin,CCN(CC(C)=C)c1c(cc(cc1[N+]([O-])=O)C(F)(F)F)[N+]([O-])=O,332.2
ethane,CC,89.5
ethanethioamide,CC(N)=S,385.7
ethanoic acid,CC(O)=O,298.7
ethanol,CCO,158.8
Ethiofencarb,CCSCc1ccccc1OC(=O)NC,306.6
"ethyl 2-hydroxy-2,2-bis-(4-chlorophenyl)acetate",CCOC(=O)C(O)(c1ccc(Cl)cc1)c2ccc(Cl)cc2,310.4
ethyl 4-aminobenzoate,CCOC(=O)c1ccc(N)cc1,362.8
ethyl acetate,CCOC(C)=O,189.3
ethyl carbamate,CCOC(N)=O,321.9
ethyl cyanoacetate,CCOC(=O)CC#N,246.8
ethyl docosanoate,CCCCCCCCCCCCCCCCCCCCCC(=O)OCC,321.0
ethyl dodecanoate,CCCCCCCCCCCC(=O)OCC,271.5
ethyl eicosanoate,CCCCCCCCCCCCCCCCCCCC(=O)OCC,396.7
ethyl hexadecanoate,CCCCCCCCCCCCCCCC(=O)OCC,296.4
ethyl mercaptan,CCS,195.3
ethyl methyl sulfide,CCSC,167.2
"ethyl N-benzoyl-n-(3,4-dichlorophenyl)-dl-alaninate",CCOC(=O)C(C)N(C(=O)c1ccccc1)c2ccc(Cl)c(Cl)c2,341.7
ethyl nitrate,CCO[N+]([O-])=O,178.6
ethyl propyl ether,CCCOCC,145.7
ethyl propyl sulfide,CCCSCC,156.1
ethyl tetracosanate,CCCCCCCCCCCCCCCCCCCCCCCC(=O)OCC,327.4
ethyl triacontanoate,CCCCCCCCCCCCCCCCCCCCCCCCCCCCCC(=O)OCC,341.5
"ethyl(1,1-dimethylpropyl)malononitrile",CCC(C)(C)C(CC)(C#N)C#N,307.5
ethylbenzene,CCc1ccccc1,178.2
ethylcyclohexane,CCC1CCCCC1,161.4
ethylcyclopentane,CCC1CCCC1,134.7
ethylene,C=C,104.0
ethylene carbonate,O=C1OCCO1,309.5
ethylene oxalate,O=C1OCCOC1=O,415.0
ethylene oxide,C1CO1,160.7
ethylestrenol,CCC(O)[C@]12CC[C@@H]3[C@H]4CCCCC4CC[C@H]3[C@@H]1CC=C2,350.2
ethylmethylsulfone,CC[S](C)(=O)=O,307.7
ethynodiol diacetate,CC(=O)O[C@H]1CC[C@@H]2[C@H]3CC[C@@]4(C)[C@@H](CC[C@@]4(OC(C)=O)C#C)[C@@H]3CCC2=C1,399.2
ethynyl estradiol,C[C@]12CC[C@H]3[C@@H](CCc4cc(O)ccc34)[C@@H]1CC[C@@]2(O)C#C,456.2
Fenobucarb,CCC(C)c1ccccc1OC(=O)NC,304.7
Fenothiocarb,CN(C)C(=O)SCCCCOc1ccccc1,313.7
fenuron,CN(C)C(=O)Nc1ccccc1,406.2
Flazasulfuron,COc1cc(OC)nc(NC(=O)N[S](=O)(=O)c2ncccc2C(F)(F)F)n1,441.2
Flufenoxuron,Fc1cc(Oc2ccc(cc2Cl)C(F)(F)F)ccc1NC(=O)NC(=O)c3c(F)cccc3F,444.2
flumethiazide,N[S](=O)(=O)c1cc2c(NC=N[S]2(=O)=O)cc1C(F)(F)F,573.2
fluocinolone acetonide,CC1(C)O[C@@H]2C[C@H]3[C@@H]4C[C@H](F)C5=CC(=O)C=C[C@]5(C)[C@@]4(F)[C@@H](O)C[C@]3(C)[C@@]2(O1)C(=O)CO,539.2
fluocinonide,CC(=O)OCC(=O)[C@@]12OC(C)(C)O[C@@H]1C[C@H]3[C@@H]4C[C@H](F)C5=CC(=O)C=C[C@]5(C)[C@@]4(F)[C@@H](O)C[C@]23C,583.2
fluometuron,CN(C)C(=O)Nc1cccc(c1)C(F)(F)F,437.2
fluorene,C1c2ccccc2c3ccccc13,387.9
fluorobenzene,Fc1ccccc1,230.9
fluorometholone,C[C@H]1C[C@H]2[C@@H]3CC[C@](O)(C(C)=O)[C@@]3(C)C[C@H](O)[C@]2(F)[C@@]4(C)C=CC(=O)C=C14,568.2
fluorotrichloromethane,FC(Cl)(Cl)Cl,162.7
flurandrenolide,CC1(C)O[C@@H]2C[C@H]3[C@@H]4C[C@H](F)C5=CC(=O)CC[C@]5(C)[C@H]4[C@@H](O)C[C@]3(C)[C@@]2(O1)C(=O)CO,523.2
Forchlorfenuron,Clc1cc(NC(=O)Nc2ccccc2)ccn1,440.2
furan,o1cccc1,187.6
furfural,O=Cc1occc1,235.1
furfuryl alcohol,OCc1occc1,258.6
glutaric acid,OC(=O)CCCC(O)=O,371.0
glyburide,COc1ccc(Cl)cc1C(=O)NCCc2ccc(cc2)[S](=O)(=O)NC(=O)NC3CCCCC3,442.2
glyceryl triacetate,CC([O-])=O.CC([O-])=O.CC(=O)OCC(O)CO,275.3
glyceryl trilaurate,CCCCCCCCCCCC([O-])=O.CCCCCCCCCCCC([O-])=O.CCCCCCCCCCCC(=O)OCC(O)CO,319.5
glyceryl trimyristate,CCCCCCCCCCCCCC([O-])=O.CCCCCCCCCCCCCC([O-])=O.CCCCCCCCCCCCCC(=O)OCC(O)CO,330.2
glyceryl tripalmitate,CCCCCCCCCCCCCCCC([O-])=O.CCCCCCCCCCCCCCCC([O-])=O.CCCCCCCCCCCCCCCC(=O)OCC(O)CO,338.9
glyceryl tristearate,CCCCCCCCCCCCCCCCCC([O-])=O.CCCCCCCCCCCCCCCCCC([O-])=O.CCCCCCCCCCCCCCCCCC(=O)OCC(O)CO,345.7
Halosulfuron,COc1cc(OC)nc(NC(=O)N[S](=O)(=O)c2n(C)nc(Cl)c2C(O)=O)n1,449.2
heptabarbital,CCC1(C(=O)NC(=O)NC1=O)C2=CCCCCC2,447.2
heptadecanoic acid,CCCCCCCCCCCCCCCCC(O)=O,334.3
heptanal,CCCCCCC=O,229.3
heptane,CCCCCCC,182.6
heptanoic acid,CCCCCCC(O)=O,265.8
hexachlorobenzene,Clc1c(Cl)c(Cl)c(Cl)c(Cl)c1Cl,505.0
hexachlorocyclopropane,ClC1(Cl)C(Cl)(Cl)C1(Cl)Cl,376.0
hexachloroethane,ClC(Cl)(Cl)C(Cl)(Cl)Cl,458.0
hexacontane,CCCCCCCCCCCCCCCCCCCCCCCCCCCCCCCCCCCCCCCCCCCCCCCCCCCCCCCCCCCC,373.2
hexadecane,CCCCCCCCCCCCCCCC,291.1
hexadecanoic acid,CCCCCCCCCCCCCCCC(O)=O,335.7
Hexaflumuron,FC(F)C(F)(F)Oc1c(Cl)cc(NC(=O)NC(=O)c2c(F)cccc2F)cc1Cl,476.7
hexafluoroacetone,FC(F)(F)C(=O)C(F)(F)F,147.7
hexafluorobenzene,Fc1c(F)c(F)c(F)c(F)c1F,278.3
hexafluoroethane,FC(F)(F)C(F)(F)F,173.1
hexamethylbenzene,Cc1c(C)c(C)c(C)c(C)c1C,438.7
hexanal,CCCCCC=O,243.2
hexanamide,CCCCCC(N)=O,374.0
hexatriacontane,CCCCCCCCCCCCCCCCCCCCCCCCCCCCCCCCCCCC,349.2
hexyl ethanoate,CCCCCCOC(C)=O,212.1
hexyl N-phenylcarbamate,CCCCCCOC(=O)Nc1ccccc1,328.0
"hydrazobenzene  (1,2-diphenylhydrazine)",N(Nc1ccccc1)c2ccccc2.N(Nc3ccccc3)c4ccccc4,407.2
hydrochlorothiazide,N[S](=O)(=O)c1cc2c(NCN[S]2(=O)=O)cc1Cl,547.2
hydrocinnamic acid,OC(=O)CCc1ccccc1,321.2
hydrocortisone,C[C@]12CCC(=O)C=C1CC[C@H]3[C@@H]4CC[C@](O)(C(=O)CO)[C@@]4(C)C[C@H](O)[C@H]23,485.0
hydrocortisone 21-hexanoate,CCCCCC(=O)OCC(=O)C1(CCC2C1(CC(C3C2CCC4=CC(=O)CCC34C)O)C)O,388.2
hydrocortisone-17-butyrate,CCCC(=O)O[C@@]1(CC[C@H]2[C@@H]3CCC4=CC(=O)CC[C@]4(C)[C@H]3[C@@H](O)C[C@]12C)C(=O)CO,395.0
hydrocortisone-21-acetate,CC(=O)OCC(=O)[C@@]1(O)CC[C@H]2[C@@H]3CCC4=CC(=O)CC[C@]4(C)[C@H]3[C@@H](O)C[C@]12C,497.0
hydrocortisone-21-butyrate,CCCC(=O)OCC(=O)[C@@]1(O)CCC2C3CCC4=CC(=O)CCC4(C)C3C(O)CC12C,463.2
hydroflumethiazide,N[S](=O)(=O)c1cc2c(NCN[S]2(=O)=O)cc1C(F)(F)F,543.7
Imazosulfuron,COc1cc(OC)nc(NC(=O)N[S](=O)(=O)c2n3ccccc3nc2Cl)n1,456.2
imidazole,[nH]1ccnc1,361.9
indene,C1C=Cc2ccccc12,271.7
iodobenzene,Ic1ccccc1,241.8
iodomethane,CI,206.8
Ipazine,CCN(CC)c1nc(Cl)nc(NC(C)C)n1,360.2
isobutane,CC(C)C,113.7
isobutene,CC(C)=C,132.4
isobutyl alcohol,CC(C)CO,171.2
isobutyl mercaptan,CC(C)CS,128.3
isochroman,C1Cc2ccccc2CO1,277.5
isonicotinic acid,OC(=O)c1ccncc1,593.0
Isoprocarb,CNC(=O)Oc1ccccc1C(C)C,367.2
"isopropyl 4,4'-dibromobenzilate",CC(C)OC(=O)C(O)(c1ccc(Br)cc1)c2ccc(Br)cc2,348.1
isopropyl ether,CC(C)OC(C)C,187.8
isopropyl methyl ketone,CC(C)C(C)=O,180.0
isopropyl methyl sulfide,CSC(C)C,171.7
isopropyl nitrate,CC(C)O[N+]([O-])=O,190.9
isopropyl phenylcarbamate,CC(C)OC(=O)Nc1ccccc1,359.5
isopropyl-3-chlorophenylcarbamate,CC(C)OC(=O)Nc1cccc(Cl)c1,313.9
isopropylbenzene,CC(C)c1ccccc1,177.1
Isoproturon,CC(C)c1ccc(NC(=O)N(C)C)cc1,431.2
isoquinoline,c1ccc2cnccc2c1,299.6
Isouron,CN(C)C(=O)Nc1cc(on1)C(C)(C)C,392.7
L-carvone,CC(=C)C1CC=C(C)C(=O)C1,247.7
levulinic acid,CC(=O)CCC(O)=O,306.2
L-iditol,OC[C@H](O)[C@@H](O)[C@H](O)[C@@H](O)CO,352.8
linoelaidic acid,CCCCC/C=C/C/C=C/CCCCCCCC(O)=O,303.0
linuron,CON(C)C(=O)Nc1ccc(Cl)c(Cl)c1,367.2
Lufenuron,FC(C(F)(F)F)C(F)(F)Oc1cc(Cl)c(NC(=O)NC(=O)c2c(F)cccc2F)cc1Cl,439.2
lynestrenol,C[C@]12CC[C@H]3[C@@H](CCC4=CCCC[C@H]34)[C@@H]1CC[C@@]2(O)C#C,432.2
m-(methylamino)benzoic acid,CNc1cccc(c1)C(O)=O,402.2
m-acetamidobenzoic acid,CC(=O)Nc1cccc(c1)C(O)=O,523.2
m-acetotoluidide,CC(=O)Nc1cccc(C)c1,339.2
m-acetoxybenzoic acid,CC(=O)Oc1cccc(c1)C(O)=O,404.2
maleic anhydride,O=C1OC(=O)C=C1,325.7
malonamide,NC(=O)CC(N)=O,443.0
m-aminoacetanilide,CC(=O)Nc1cccc(N)c1,361.2
m-aminobenzaldehyde,Nc1cccc(C=O)c1,303.2
m-aminobenzamide,NC(=O)c1cccc(N)c1,384.2
m-aminobenzyl alcohol,Nc1cccc(CO)c1,370.2
m-aminophenol,Nc1cccc(O)c1,399.0
m-benzenedicarboxylic acid,OC(=O)c1cccc(c1)C(O)=O,621.2
m-bromoacetanilide,CC(=O)Nc1cccc(Br)c1,361.2
m-bromoacetophenone,CC(=O)c1cccc(Br)c1,281.2
m-bromoaniline,Nc1cccc(Br)c1,291.2
m-bromobenzamide,NC(=O)c1cccc(Br)c1,428.2
m-bromobenzoic acid,OC(=O)c1cccc(Br)c1,428.2
m-bromobenzonitrile,Brc1cccc(c1)C#N,311.2
m-bromobenzyl bromide,BrCc1cccc(Br)c1,314.2
m-bromomethylbenzoic acid,OC(=O)c1cccc(CBr)c1,429.2
m-bromophenol,Oc1cccc(Br)c1,306.2
m-bromophenyl urea,NC(=O)Nc1cccc(Br)c1,438.2
m-bromotoluene,Cc1cccc(Br)c1,233.2
m-chloroacetanilide,CC(=O)Nc1cccc(Cl)c1,352.2
m-chloroaniline,Nc1cccc(Cl)c1,263.2
m-chlorobenzaldehyde,Clc1cccc(C=O)c1,291.2
m-chlorobenzamide,NC(=O)c1cccc(Cl)c1,407.2
m-chlorobenzonitrile,Clc1cccc(c1)C#N,314.2
m-chlorobenzyl bromide,Clc1cccc(CBr)c1,295.2
m-chloroethylbenzene,ClCCc1ccccc1,210.6
m-chlorotoluene,Cc1cccc(Cl)c1,225.2
m-cyanoaniline,Nc1cccc(c1)C#N,326.2
m-cyanobenzaldehyde,O=Cc1cccc(c1)C#N,351.2
m-cyanobenzoic acid,OC(=O)c1cccc(c1)C#N,490.2
m-cymene,CC(C)c1cccc(C)c1,209.5
m-diacetylbenzene,CC(=O)c1cccc(c1)C(C)=O,305.2
m-diethylbenzene,CCc1cccc(CC)c1,189.3
m-diethynylbenzene,C#Cc1cccc(c1)C#C,276.2
Mebendazole,COC(=O)Nc1[nH]c2cc(ccc2n1)C(=O)c3ccccc3,561.7
mestanolone,C[C@]1(O)CC[C@H]2[C@@H]3CC[C@H]4CC(=O)CC[C@]4(C)[C@H]3CC[C@]12C,465.2
Methabenzthiazuron,CNC(=O)N(C)c1sc2ccccc2n1,393.2
methacrylamide,CC(=C)C(N)=O,385.1
methandienone,C[C@]1(O)CC[C@H]2[C@@H]3CCC4=CC(=O)C=C[C@]4(C)[C@H]3CC[C@]12C,436.2
methanethiol,CS,150.2
methanol,CO,175.3
Methiocarb,CNC(=O)Oc1cc(C)c(SC)c(C)c1,393.2
Methomyl,CNC(=O)O\N=C(/C)SC,351.2
m-ethoxyacetanilide,CCOc1cccc(NC(C)=O)c1,369.2
m-ethoxybenzamide,CCOc1cccc(c1)C(N)=O,412.2
methoxybenzene,COc1ccccc1,293.2
m-ethoxybenzoic acid,CCOc1cccc(c1)C(O)=O,410.2
m-ethoxyphenyl acetate,CCOc1cccc(OC(C)=O)c1,307.2
methyclothiazide,CN1C(CCl)Nc2cc(Cl)c(cc2[S]1(=O)=O)[S](N)(=O)=O,498.2
"methyl 2-(2,4,5-trichlorophenoxy)acetate",COC(=O)COc1cc(Cl)c(Cl)cc1Cl,361.9
"methyl 2-(2,4,5-trichlorophenoxy)butyrate",CCC(Oc1cc(Cl)c(Cl)cc1Cl)C(=O)OC,316.5
"methyl 2-(2,4,5-trichlorophenoxy)propionate",COC(=O)C(C)Oc1cc(Cl)c(Cl)cc1Cl,360.6
"methyl 2-(4-(2,4-dichlorophenoxy)phenoxy)propionate",COC(=O)C(C)Oc1ccc(Oc2ccc(Cl)cc2Cl)cc1,314.4
"methyl 2,4-dichlorophenoxyacetate",COC(=O)COc1ccc(Cl)cc1Cl,315.4
"methyl 3,6-dichloro-2-methoxybenzoate",COC(=O)c1c(Cl)ccc(Cl)c1OC,304.6
methyl 3-m-tolylcarbamoyloxyphenylcarbamate,COC(=O)Nc1cccc(OC(=O)Nc2cccc(C)c2)c1,423.8
"methyl 4-(2,4-dichlorophenoxy)butyrate",COC(=O)CCCOc1ccc(Cl)cc1Cl,309.6
"methyl 4-amino-3,5,6-trichloro-2-picolinate",COC(=O)c1nc(Cl)c(Cl)c(N)c1Cl,394.3
methyl 4-aminobenzoate,COC(=O)c1ccc(N)cc1,385.1
methyl 4-hydroxybenzoate,COC(=O)c1ccc(O)cc1,398.5
"methyl 5-(2,4-dichlorophenoxy)-2-nitrobenzoate",COC(=O)c1cc(Oc2ccc(Cl)cc2Cl)ccc1[N+]([O-])=O,358.3
methyl acetate,COC(C)=O,174.9
methyl acrylate,COC(=O)C=C,197.5
methyl a-D-mannopyranoside,COC1C(C(C(C(O1)CO)O)O)O,455.2
methyl benzoate,COC(=O)c1ccccc1,261.0
methyl butyl sulfide,CCCCSC,175.6
methyl carbamate,COC(N)=O,328.6
methyl chloride,CCl,174.5
methyl docosanoate,CCCCCCCCCCCCCCCCCCCCCC(=O)OC,325.0
methyl isopropyl ether,COC(C)C,127.3
methyl methacrylate,COC(=O)C(C)=C,225.0
methyl myristate,CCCCCCCCCCCCCC(=O)OC,291.6
methyl n-butyl ether,CCCCOC,157.5
methyl n-decyl ether,CCCCCCCCCCOC,243.5
methyl nitrate,CO[N+]([O-])=O,190.2
methyl N-phenylcarbamate,COC(=O)Nc1ccccc1,325.0
methyl octadecanoate,CCCCCCCCCCCCCCCCCC(=O)OC,310.9
methyl palmitate,CCCCCCCCCCCCCCCC(=O)OC,307.2
methyl perfluorobutanoate,COC(=O)C(F)(F)C(F)(F)C(F)(F)F,191.4
"methyl p-N,N-dimethylaminobenzoate",COC(=O)c1ccc(cc1)N(C)C,371.8
methyl propyl ether,CCCOC,134.0
methyl propyl sulfide,CCCSC,160.2
methyl tert-butyl ether,COC(C)(C)C,164.6
methyl tert-butyl sulfide,CSC(C)(C)C,190.8
"methyl-3,4-dichlorophenylcarbamate",CN(C([O-])=O)c1ccc(Cl)c(Cl)c1,381.4
methylamine,CN,179.7
m-ethylbenzoic acid,CCc1cccc(c1)C(O)=O,320.2
methylcyclobutane,CC1CCC1,138.6
methylcyclohexane,CC1CCCCC1,146.6
methylcyclopentane,CC1CCCC1,130.7
Methyldymron,CN(C(=O)NC(C)(C)c1ccccc1)c2ccc(C)cc2,345.2
methylenecyclobutane,[CH2]=[C]1C[CH2]C1,138.5
methylhydrazine,CNN,220.8
m-ethylphenol,CCc1cccc(O)c1,269.2
methylphenylsulfide,CSc1ccccc1,256.4
methylphosphonyl chlorofluoride,C[P](F)(Cl)=O,250.7
methylphosphonyl dichloride,C[P](Cl)(Cl)=O,306.1
methylphosphonyl difluoride,CP(=O)(F)F,236.3
methylprednisolone,C[C@H]1C[C@H]2[C@@H]3CC[C@](O)(C(=O)CO)[C@@]3(C)C[C@H](O)[C@@H]2[C@@]4(C)C=CC(=O)C=C14,513.2
methylprednisolone-21-acetate,CC1CC2C3CCC(C3(CC(C2C4(C1=CC(=O)C=C4)C)O)C)(C(=O)COC(=O)C)O,498.2
m-ethyltoluene,CCc1cccc(C)c1,177.2
metobromuron,CON(C)C(=O)Nc1ccc(Br)cc1,369.2
Metolcarb,CNC(=O)Oc1cccc(C)c1,349.7
metoprolol,COCCc1ccc(OCC(O)CNC(C)C)cc1,308.2
Metoxuron,COc1ccc(NC(=O)N(C)C)cc1Cl,399.7
m-fluorobenzoic acid,OC(=O)c1cccc(F)c1,397.2
m-hydroxyacetanilide,CC(=O)Nc1cccc(O)c1,422.2
m-hydroxyacetophenone,CC(=O)c1cccc(O)c1,369.2
m-hydroxybenzaldehyde,Oc1cccc(C=O)c1,381.2
m-hydroxybenzaldehyde oxime,ON=Cc1cccc(O)c1,363.2
m-hydroxybenzamide,NC(=O)c1cccc(O)c1,440.2
m-hydroxybenzyl alcohol,OCc1cccc(O)c1,346.2
m-hydroxytoluene,Cc1cccc(O)c1,285.4
m-iodoacetanilide,CC(=O)Nc1cccc(I)c1,392.2
m-iodoaniline,Nc1cccc(I)c1,298.2
m-iodobenzaldehyde,Ic1cccc(C=O)c1,330.2
m-iodobenzaldehyde oxime,ON=Cc1cccc(I)c1,335.2
m-iodobenzamide,NC(=O)c1cccc(I)c1,459.2
m-iodobenzyl bromide,BrCc1cccc(I)c1,324.2
m-iodophenol,Oc1cccc(I)c1,313.2
m-iodophenyl acetate,CC(=O)Oc1cccc(I)c1,311.2
m-iodotoluene,Cc1cccc(I)c1,246.0
m-isopropylbenzoic acid,CC(C)c1cccc(c1)C(O)=O,324.2
m-methoxyacetanilide,COc1cccc(NC(C)=O)c1,353.2
m-methoxyacetophenone,COc1cccc(c1)C(C)=O,368.2
m-methoxyaniline,COc1cccc(N)c1,261.2
m-methoxybenzaldoxime,COc1cccc(C=NO)c1,313.2
m-methoxybenzoic acid,COc1cccc(c1)C(O)=O,383.2
m-methoxyphenyl acetate,COc1cccc(OC(C)=O)c1,312.2
m-nitroacetanilide,CC(=O)Nc1cccc(c1)[N+]([O-])=O,428.2
m-nitroacetophenone,CC(=O)c1cccc(c1)[N+]([O-])=O,354.2
m-nitrobenzaldehyde,[O-][N+](=O)c1cccc(C=O)c1,331.2
m-nitrobenzaldoxime,ON=Cc1cccc(c1)[N+]([O-])=O,395.2
m-nitrobenzamide,NC(=O)c1cccc(c1)[N+]([O-])=O,415.2
m-nitrobenzoic acid,OC(=O)c1cccc(c1)[N+]([O-])=O,414.3
m-nitrobenzonitrile,[O-][N+](=O)c1cccc(c1)C#N,391.2
m-nitrobenzoyl chloride,[O-][N+](=O)c1cccc(c1)C(Cl)=O,308.2
m-nitrobenzyl alcohol,OCc1cccc(c1)[N+]([O-])=O,300.2
m-nitrobenzyl bromide,[O-][N+](=O)c1cccc(CBr)c1,332.2
m-nitrobenzyl chloride,[O-][N+](=O)c1cccc(CCl)c1,319.2
m-nitrobenzyl cyanide,[O-][N+](=O)c1cccc(CC#N)c1,335.2
m-nitrobenzyl iodide,[O-][N+](=O)c1cccc(CI)c1,359.2
m-nitrobromobenzene,[O-][N+](=O)c1cccc(Br)c1,329.2
m-nitroiodobenzene,[O-][N+](=O)c1cccc(I)c1,311.2
m-nitrophenol,Oc1cccc(c1)[N+]([O-])=O,371.2
m-nitrophenyl acetate,CC(=O)Oc1cccc(c1)[N+]([O-])=O,329.2
m-nitrophenylacetic acid,OC(=O)Cc1cccc(c1)[N+]([O-])=O,393.2
m-n-propylbenzoic acid,CCCc1cccc(c1)C(O)=O,316.2
Monuron,CN(C)C(=O)Nc1ccc(Cl)cc1,443.7
m-phenylenediacetic acid,OC(=O)Cc1cccc(CC(O)=O)c1,443.2
m-phenylenediamine,Nc1cccc(N)c1,335.5
m-propylphenol,CCCc1cccc(O)c1,299.2
m-terphenyl,c1ccc(cc1)c2cccc(c2)c3ccccc3,360.0
m-tolualdehyde oxime,Cc1cccc(C=NO)c1,333.2
m-toluamide,Cc1cccc(c1)C(N)=O,368.2
m-toluic acid,Cc1cccc(c1)C(O)=O,381.9
m-toluidine,Cc1cccc(N)c1,241.7
m-tolunitrile,Cc1cccc(c1)C#N,250.2
m-tolylurea,Cc1cccc(NC(N)=O)c1,415.2
m-xylene,Cc1cccc(C)c1,225.3
myo-inositol,OC1C(O)C(O)C(O)C(O)C1O,496.9
"N-(1-ethylpropyl)-2,6-dinitro-3,4-xylidine",CCC(CC)Nc1c(cc(C)c(C)c1[N+]([O-])=O)[N+]([O-])=O,327.5
"N-(2-chloroethyl)-2,6-dinitro-N-propyl-4-(trifluoromethyl)benzeneamine",CCCN(CCCl)c1c(cc(cc1[N+]([O-])=O)C(F)(F)F)[N+]([O-])=O,318.4