NAME,SMILES,Tm (K)
p-nitroacetanilide,CC(=O)Nc1ccc(cc1)[N+]([O-])=O,489.2
p-nitroacetophenone,CC(=O)c1ccc(cc1)[N+]([O-])=O,354.2
p-nitrobenzaldehyde,[O-][N+](=O)c1ccc(C=O)cc1,379.2
p-nitrobenzaldoxime,ON=Cc1ccc(cc1)[N+]([O-])=O,406.2
p-nitrobenzamide,NC(=O)c1ccc(cc1)[N+]([O-])=O,473.2
p-nitrobenzoic acid,OC(=O)c1ccc(cc1)[N+]([O-])=O,512.4
p-nitrobenzonitrile,[O-][N+](=O)c1ccc(cc1)C#N,422.2
p-nitrobenzoyl chloride,[O-][N+](=O)c1ccc(cc1)C(Cl)=O,348.2
p-nitrobenzyl alcohol,OCc1ccc(cc1)[N+]([O-])=O,366.2
p-nitrobenzyl bromide,[O-][N+](=O)c1ccc(CBr)cc1,373.2
p-nitrobenzyl chloride,[O-][N+](=O)c1ccc(CCl)cc1,344.2
p-nitrobenzyl cyanide,[O-][N+](=O)c1ccc(CC#N)cc1,390.2
p-nitrobenzyl iodide,[O-][N+](=O)c1ccc(CI)cc1,400.2
p-nitrobromobenzene,[O-][N+](=O)c1ccc(Br)cc1,400.2
p-nitroiodobenzene,[O-][N+](=O)c1ccc(I)cc1,447.2
p-nitrophenol,Oc1ccc(cc1)[N+]([O-])=O,388.2
p-nitrophenyl acetate,CC(=O)Oc1ccc(cc1)[N+]([O-])=O,356.2
p-nitrophenylacetic acid,OC(=O)Cc1ccc(cc1)[N+]([O-])=O,426.2
polythiazide,CN1C(CSCC(F)(F)F)Nc2cc(Cl)c(cc2[S]1(=O)=O)[S](N)(=O)=O,475.7
p-phenylazoaniline,N(N=NNc1ccc(cc1)c2ccccc2)c3ccccc3,398.2
p-phenylenediacetic acid,OC(=O)Cc1ccc(CC(O)=O)cc1,517.2
p-phenylenediamine,Nc1ccc(N)cc1,412.3
p-propylphenol,CCCc1ccc(O)cc1,294.2
p-quaterphenyl,c1ccc(cc1)c2ccc(cc2)c3ccc(cc3)c4ccccc4,587.2
prasterone,C[C@]12CC[C@H]3[C@@H](CC=C4C[C@@H](O)CC[C@]34C)[C@@H]1CCC2=O,423.0
prasterone acetate,CC(=O)O[C@H]1CC[C@]2(C)[C@H]3CC[C@@]4(C)[C@@H](CCC4=O)[C@@H]3CC=C2C1,440.2
prednisolone,C[C@]12C[C@H](O)[C@H]3[C@@H](CCC4=CC(=O)C=C[C@]34C)[C@@H]1CC[C@]2(O)C(=O)CO,513.0
prednisone,C[C@]12CC(=O)[C@H]3[C@@H](CCC4=CC(=O)C=C[C@]34C)[C@@H]1CC[C@]2(O)C(=O)CO,507.2
pregnenolone,CC(=O)[C@H]1CC[C@H]2[C@@H]3CC=C4C[C@@H](O)CC[C@]4(C)[C@H]3CC[C@]12C,466.2
pregnenolone acetate,CC(=O)OC1CCC2(C)C3CCC4(C)C(CCC4C(C)=O)C3CC=C2C1,423.4
Prodiamine,CCCN(CCC)c1c(cc(c(N)c1[N+]([O-])=O)C(F)(F)F)[N+]([O-])=O,397.2
Profluralin,CCCN(CC1CC1)c2c(cc(cc2[N+]([O-])=O)C(F)(F)F)[N+]([O-])=O,306.2
progesterone,CC(=O)[C@H]1CC[C@H]2[C@@H]3CCC4=CC(=O)CC[C@]4(C)[C@H]3CC[C@]12C,403.0
Promecarb,CNC(=O)Oc1cc(C)cc(c1)C(C)C,360.2
Prometon,COc1nc(NC(C)C)nc(NC(C)C)n1,365.2
Prometryn,CSc1nc(NC(C)C)nc(NC(C)C)n1,392.2
propanal,CCC=O,171.3
propane,CCC,85.5
Propazine,CC(C)Nc1nc(Cl)nc(NC(C)C)n1,486.2
propene,CC=C,88.2
propionic acid,CCC(O)=O,252.7
propionitrile,CCC#N,180.4
Propoxur,CNC(=O)Oc1ccccc1OC(C)C,360.2
propranolol,CC(C)NCC(O)COc1cccc2ccccc12,369.2
propyl 4-aminobenzoate,CCCOC(=O)c1ccc(N)cc1,347.1
propyl 4-hydroxybenzoate,CCCOC(=O)c1ccc(O)cc1,369.2
propylcyclopentane,CCCC1CCCC1,155.8
propylene carbonate,CC1COC(=O)O1,218.2
propylene oxide,CC1CO1,161.3
p-terphenyl,c1ccc(cc1)c2ccc(cc2)c3ccccc3,486.3
p-tolualdehyde oxime,Cc1ccc(cc1)C=NO,353.2
p-toluamide,Cc1ccc(cc1)C(N)=O,432.2
p-toluic acid,Cc1ccc(cc1)C(O)=O,452.8
p-toluidine,Cc1ccc(N)cc1,316.5
p-tolunitrile,Cc1ccc(cc1)C#N,302.2
p-tolylurea,Cc1ccc(NC(N)=O)cc1,456.2
p-xylene,Cc1ccc(C)cc1,286.3
pyrazine,c1cnccn1,328.2
pyrazole,[nH]1cccn1,343.2
Pyrazosulfuron-ethyl,CCOC(=O)c1cnn(C)c1[S](=O)(=O)NC(=O)Nc2nc(OC)cc(OC)n2,454.7
pyrene,c1cc2ccc3cccc4ccc(c1)c2c34,423.8
pyridine,c1ccncc1,231.5
pyrrole,[nH]1cccc1,249.7
pyrrolidine,C1CCNC1,215.3
quinazoline,c1ccc2ncncc2c1,320.9
quinoline,c1ccc2ncccc2c1,258.4
quinoxaline,c1ccc2nccnc2c1,305.7
Rimsulfuron,CC[S](=O)(=O)c1cccnc1[S](=O)(=O)NC(=O)Nc2nc(OC)cc(OC)n2,450.2
"S-2,3,3-trichloroallyl diisopropylthiocarbamate",CC(C)N(C(C)C)C(=O)SCC(Cl)=C(Cl)Cl,306.4
sebacic acid,OC(=O)CCCCCCCCC(O)=O,404.0
Secbumeton,CCNc1nc(NC(C)CC)nc(OC)n1,361.2
sec-butylbenzene,CCC(C)c1ccccc1,204.2
secobarbital,CCCC(C)C1(CC=C)C(=O)NC(=O)NC1=O,373.2
siduron,CC1CCCCC1NC(=O)Nc2ccccc2,409.2
Simazine,CCNc1nc(Cl)nc(NCC)n1,498.2
Simetryn,CCNc1nc(NCC)nc(SC)n1,356.2
spiropentane,C1CC12CC2,166.1
"ß,ß-binaphthyl",c1ccc2cc(ccc2c1)c3ccc4ccccc4c3,461.2
ß-naphthol,Oc1ccc2ccccc2c1,393.6
ß-naphthyl acetate,CC(=O)Oc1ccc2ccccc2c1,342.2
ß-propiolactone,O=C1CCO1,239.9
stanolone acetate,CC(=O)O[C@H]1CCC2C3CCC4CC(=O)CC[C@]4(C)C3CC[C@]12C,430.0
stanozolol,C[C@]1(O)CC[C@H]2[C@@H]3CC[C@H]4Cc5[nH]ncc5C[C@]4(C)[C@H]3CC[C@]12C,508.2
styrene,C=Cc1ccccc1,242.3
suberic acid,OC(=O)CCCCCCC(O)=O,415.3
succinic acid,OC(=O)CCC(O)=O,457.0
succinimide,O=C1CCC(=O)N1,400.0
succinonitrile,N#CCCC#N,331.2
sulfabenz,Nc1ccc(cc1)[S](=O)(=O)Nc2ccccc2,473.2
sulfabenzamide,Nc1ccc(cc1)[S](=O)(=O)NC(=O)c2ccccc2,454.2
sulfabromomethazine,Cc1nc(N[S](=O)(=O)c2ccc(N)cc2)nc(C)c1Br,523.2
sulfacetamide,CC(=O)N[S](=O)(=O)c1ccc(N)cc1,456.2
sulfacytine,CCN1C=CC(=NC1=O)N[S](=O)(=O)c2ccc(N)cc2,440.2
sulfadiazine,Nc1ccc(cc1)[S](=O)(=O)Nc2ncccn2,527.2
sulfadicramide,CC(C)=CC(=O)N[S](=O)(=O)c1ccc(N)cc1,457.2
sulfadimethoxine,COc1cc(N[S](=O)(=O)c2ccc(N)cc2)nc(OC)n1,475.2
sulfadoxine,COc1ncnc(N[S](=O)(=O)c2ccc(N)cc2)c1OC,465.2
sulfaethidole,CCc1sc(N[S](=O)(=O)c2ccc(N)cc2)nn1,459.2
sulfalene,COc1nccnc1N[S](=O)(=O)c2ccc(N)cc2,449.2
sulfamerazine,Cc1ccnc(N[S](=O)(=O)c2ccc(N)cc2)n1,509.2
sulfameter,COc1cnc(N[S](=O)(=O)c2ccc(N)cc2)nc1,488.2
sulfamethazine,Cc1cc(C)nc(N[S](=O)(=O)c2ccc(N)cc2)n1,449.2
sulfamethizole,Cc1sc(N[S](=O)(=O)c2ccc(N)cc2)nn1,481.2
sulfamethomidine,COc1cc(N[S](=O)(=O)c2ccc(N)cc2)nc(C)n1,419.2
sulfamethoxazole,Cc1onc(N[S](=O)(=O)c2ccc(N)cc2)c1,440.2
sulfamethoxypyridazine,COc1ccc(N[S](=O)(=O)c2ccc(N)cc2)nn1,455.2
sulfamethylthiazole,Cc1csc(N[S](=O)(=O)c2ccc(N)cc2)n1,512.2
sulfametrole,COc1nsnc1N[S](=O)(=O)c2ccc(N)cc2,423.2
sulfamoxole,Cc1oc(N[S](=O)(=O)c2ccc(N)cc2)nc1C,467.2
Sulfanitran,CC(=O)Nc1ccc(cc1)[S](=O)(=O)Nc2ccc(cc2)[N+]([O-])=O,513.2
Sulfaperine,Cc1cnc(N[S](=O)(=O)c2ccc(N)cc2)nc1,535.2
Sulfaphenazole,Nc1ccc(cc1)[S](=O)(=O)Nc2ccnn2c3ccccc3,453.2
Sulfapyrazine,Nc1ccc(cc1)[S](=O)(=O)Nc2cnccn2,525.2
Sulfapyridine,Nc1ccc(cc1)[S](=O)(=O)Nc2ccccn2,463.2
Sulfaquinoxaline,Nc1ccc(cc1)[S](=O)(=O)Nc2cnc3ccccc3n2,520.2
Sulfasomizole,Cc1cc(N[S](=O)(=O)c2ccc(N)cc2)sn1,465.2
Sulfasymazine,CCc1nc(CC)nc(N[S](=O)(=O)c2ccc(N)cc2)n1,460.2
Sulfathiazole,Nc1ccc(cc1)[S](=O)(=O)Nc2sccn2,475.2
Sulfazamet,Cc1cc(N[S](=O)(=O)c2ccc(N)cc2)n(n1)c3ccccc3,468.2
Sulfisomidine,Cc1cc(N[S](=O)(=O)c2ccc(N)cc2)nc(C)n1,516.2
Sulfisoxazole,Cc1noc(N[S](=O)(=O)c2ccc(N)cc2)c1C,467.2
Sulfometuron-methyl,CC1=CC(=NC(=N1)NC(=O)NS(=O)(=O)C2=CC=CC=C2C(=O)OC)C,477.2
Sulfosulfuron,CC[S](=O)(=O)c1nc2ccccn2c1[S](=O)(=O)NC(=O)Nc3nc(OC)cc(OC)n3,474.6
talbutal,CCC(C)C1(CC=C)C(=O)NC(=O)NC1=O,382.2
tebuthiuron,CNC(=O)N(C)c1sc(nn1)C(C)(C)C,436.2
teflubenzuron,Fc1cccc(F)c1C(=O)NC(=O)Nc2cc(Cl)c(F)c(Cl)c2F,495.7
Terbumeton,CCNc1nc(NC(C)(C)C)nc(OC)n1,396.7
Terbuthylazine,CCNc1nc(Cl)nc(NC(C)(C)C)n1,451.2
Terbutryn,CCNc1nc(NC(C)(C)C)nc(SC)n1,378.2
terephthalyl dichloride,ClC(=O)c1ccc(cc1)C(Cl)=O,356.1
tert-butyl alcohol,CC(C)(C)O,299.0
tert-butyl amine,CC(C)(C)N,205.7
tert-butyl bromide,CC(C)(C)Br,256.1
tert-butyl chloride,CC(C)(C)Cl,248.1
tert-butyl mercaptan,CC(C)(C)S,274.4
tert-butylbenzene,CC(C)(C)c1ccccc1,215.0
tert-butylmethylsulfone,CC(C)(C)[S](C)(=O)=O,357.6
testosterone,C[C@]12CC[C@H]3[C@@H](CCC4=CC(=O)CC[C@]34C)[C@@H]1CC[C@@H]2O,427.0
testosterone acetate,CC(=O)O[C@H]1CC[C@H]2[C@@H]3CCC4=CC(=O)CC[C@]4(C)[C@H]3CC[C@]12C,413.0
testosterone butyrate,CCCC(=O)OC1CCC2C1(CCC3C2CCC4=CC(=O)CCC34C)C,382.0
testosterone formate,C[C@]12CC[C@H]3[C@@H](CCC4=CC(=O)CC[C@]34C)[C@@H]1CC[C@@H]2OC=O,398.0
testosterone propionate,CCC(=O)O[C@H]1CC[C@H]2[C@@H]3CCC4=CC(=O)CC[C@]4(C)[C@H]3CC[C@]12C,393.0
testosterone valerate,CCCCC(=O)OC1CCC2C1(CCC3C2CCC4=CC(=O)CCC34C)C,380.0
tetrachloroethene,ClC(Cl)=C(Cl)Cl,250.8
tetrachloro-o-xylene,Cc1c(C)c(Cl)c(Cl)c(Cl)c1Cl,359.2
tetrachloro-p-xylene,Cc1c(Cl)c(Cl)c(C)c(Cl)c1Cl,368.2
tetracontane,CCCCCCCCCCCCCCCCCCCCCCCCCCCCCCCCCCCCCCCC,353.2
tetracyanoethylene,N#CC(C#N)=C(C#N)C#N,472.2
tetradecane,CCCCCCCCCCCCCC,279.0
tetradecanoic acid,CCCCCCCCCCCCCC(O)=O,327.0
tetrafluoroethylene,FC(F)=C(F)F,142.0
tetrahydrofuran,C1CCOC1,164.8
tetramethylsuccinonitrile,CC(C)(C#N)C(C)(C)C#N,442.0
tetramethylurea,CN(C)C(=O)N(C)C,272.2
tetratriacontane,CCCCCCCCCCCCCCCCCCCCCCCCCCCCCCCCCC,345.9
tetrazole,[nH]1cnnn1,432.1
theophylline,CN1C(=O)N(C)c2nc[nH]c2C1=O,544.0
thiacyclobutane,C1CSC1,199.9
thiacyclohexane,C1CCSCC1,292.3
thiacyclopentane,C1CCSC1,177.0
thianthrene,S1c2ccccc2Sc3ccccc13,429.6
Thiazafluron,CNC(=O)N(C)c1sc(nn1)C(F)(F)F,410.2
thiazole,s1ccnc1,239.4
thidiazuron,O=C(Nc1snnc1)Nc2ccccc2,486.2
Thiobencarb,CCN(CC)C(=O)SCc1ccc(Cl)cc1,276.5
Thiofanox,CNC(=O)O\N=C(/CSC)C(C)(C)C,330.2
thiophene,s1cccc1,235.2
thiophenol,Sc1ccccc1,258.2
thiourea,NC(N)=S,452.2
thioxanthone,O=C1c2ccccc2Sc3ccccc13,487.9
thymine,CC1=CNC(=O)NC1=O,321.3
thymol,CC(C)c1ccc(C)cc1O,324.2
timolol,CC(C)(C)NC[C@H](O)COc1nsnc1N2CCOCC2,475.2
tolazamide,Cc1ccc(cc1)[S](=O)(=O)NC(=O)NN2CCCCCC2,443.2
tolbutamide,CCCCNC(=O)N[S](=O)(=O)c1ccc(C)cc1,401.2
toluene,Cc1ccccc1,178.0
tolyl vinyl sulfone,Cc1ccccc1[S](=O)(=O)C=C,340.4
torsemide,CC(C)NC(=O)N[S](=O)(=O)c1cnccc1Nc2cccc(C)c2,436.2
"trans,cis-2,6-octadiene-1,8-dioic acid",OC(=O)\C=C/CC/C=C/C(O)=O,380.0
"trans,trans-2,6-octadiene-1,8-dioic acid",OC(=O)/C=C/CC/C=C/C(O)=O,541.0
trans-1-(4-heptanoylphenyl)-4-heptylcyclohexane,CCCCCCC[C@@H]1CC[C@H](CC1)c2ccc(cc2)C(=O)CCCCCC,344.7
"trans-1,2-cyclohexanediol",O[C@@H]1CCCC[C@H]1O,372.3
"trans-1,2-dimethylcyclohexane",C[C@@H]1CCCC[C@H]1C,185.0
"trans-1,3-dimethylcyclohexane",C[C@H]1CCC[C@H](C)C1,183.1
"trans-1,3-dimethylcyclopentane",C[C@H]1CC[C@H](C)C1,139.5
"trans-1,3-pentadiene",C/C=C/C=C,185.7
"trans-1,4-dimethylcyclohexane",C[C@@H]1CC[C@@H](C)CC1,236.2
"trans-1,4-di-tert-butylcyclohexane",CC(C)(C)[C@@H]1CC[C@H](CC1)C(C)(C)C,363.2
trans-10-octadecenoic acid,CCCCCCC/C=C/CCCCCCCCC(O)=O,326.0
trans-11-octadecenoic acid,CCCCCC/C=C/CCCCCCCCCC(O)=O,317.0
trans-12-octadecenoic acid,CCCCC/C=C/CCCCCCCCCCC(O)=O,325.0
trans-13-octadecenoic acid,CCCC/C=C/CCCCCCCCCCCC(O)=O,318.0
trans-14-octadecenoic acid,CCC/C=C/CCCCCCCCCCCCC(O)=O,327.0
trans-15-octadecenoic acid,CC/C=C/CCCCCCCCCCCCCC(O)=O,331.0
trans-1-heptyl-4-(4-nonanoylphenyl)cyclohexane,CCCCCCCCC(=O)c1ccc(cc1)[C@@H]2CC[C@@H](CCCCCCC)CC2,353.3
trans-2-butene,C\C=C\C,167.6
trans-2-pentene,CC/C=C/C,133.0
trans-3-octadecenoic acid,CCCCCCCCCCCCCC/C=C/CC(O)=O,334.0
trans-4-octadecenoic acid,CCCCCCCCCCCCC/C=C/CCC(O)=O,333.0
trans-5-octadecenoic acid,CCCCCCCCCCCC/C=C/CCCC(O)=O,319.0
trans-6-octadecenoic acid,CCCCCCCCCCC/C=C/CCCCC(O)=O,326.0
trans-9-octadecenoic acid (elaidic acid),CCCCCCCC/C=C/CCCCCCCC(O)=O.CCCCCCCC/C=C/CCCCCCCC(O)=O,317.6
trans-azobenzene,C1=CC=C(C=C1)N=NC2=CC=CC=C2,341.1
triacontane,CCCCCCCCCCCCCCCCCCCCCCCCCCCCCC,338.7
triamcinolone,C[C@]12C[C@H](O)[C@@]3(F)[C@@H](CCC4=CC(=O)C=C[C@]34C)[C@@H]1C[C@@H](O)[C@]2(O)C(=O)CO,543.0
triamcinolone diacetate,CC(=O)OCC(=O)[C@@]1(O)[C@@H](C[C@H]2[C@@H]3CCC4=CC(=O)C=C[C@]4(C)[C@@]3(F)[C@@H](O)C[C@]12C)OC(C)=O,508.0
triamcinolone hexacetonide,CC(C)(C)CC(=O)OCC(=O)[C@@]12OC(C)(C)O[C@@H]1C[C@H]3[C@@H]4CCC5=CC(=O)C=C[C@]5(C)[C@@]4(F)[C@@H](O)C[C@]23C,569.2
triasulfuron,COc1nc(C)nc(NC(=O)N[S](=O)(=O)c2ccccc2OCCCl)n1,451.3
triatriacontane,CCCCCCCCCCCCCCCCCCCCCCCCCCCCCCCCC,344.0
tribromomethane,BrC(Br)Br,281.5
trichlormethiazide,N[S](=O)(=O)c1cc2c(NC(N[S]2(=O)=O)C(Cl)Cl)cc1Cl,543.2
trichloroacetic acid,OC(=O)C(Cl)(Cl)Cl,330.7
trichloroethylene,ClC=C(Cl)Cl,188.5
trichloromethane,ClC(Cl)Cl,209.6
tridecandioic acid,OC(=O)CCCCCCCCCCCC(O)=O,387.5
tridecanoic acid,CCCCCCCCCCCCC(O)=O,315.0
tridecanol,CCCCCCCCCCCCCO,306.6
Trietazine,CCNc1nc(Cl)nc(n1)N(CC)CC,374.2
Triflumuron,FC(F)(F)Oc1ccc(NC(=O)NC(=O)c2ccccc2Cl)cc1,468.2
trifluoroacetonitrile,FC(F)(F)C#N,128.7
trifluoromethane,FC(F)F,118.0
trifluoromethanethiol,FC(F)(F)S,116.0
trifluoromethyl (2-hydroxy-1-propenyl)ketone,CC(O)=CC(=O)C(F)(F)F,232.4
Trifluralin,CCCN(CCC)c1c(cc(cc1[N+]([O-])=O)C(F)(F)F)[N+]([O-])=O,321.7
Trimethacarb,CNC(=O)Oc1cc(C)cc(C)c1C,383.2
trimethylamine,CN(C)C,156.1
trimethylhydrazine,CNN(C)C,201.2
trinitroglycerine,OCC(O)C(O[N+]([O-])=O)([N+]([O-])=O)[N+]([O-])=O,285.5
triphenyl phosphate,O=[P](Oc1ccccc1)(Oc2ccccc2)Oc3ccccc3,322.5
triphenylamine,c1ccc(cc1)N(c2ccccc2)c3ccccc3,400.2
triphenylchloromethane,ClC(c1ccccc1)(c2ccccc2)c3ccccc3,376.8
triphenylene,c1ccc2c(c1)c3ccccc3c4ccccc24,471.0
triphenylmethane,c1ccc(cc1)C(c2ccccc2)c3ccccc3,365.3
triphenylphosphine oxide,O=[P](c1ccccc1)(c2ccccc2)c3ccccc3,431.9
tri-tert-butylmethanol,CC(C)(C)C(O)(C(C)(C)C)C(C)(C)C,390.0
undecanedioic acid,OC(=O)CCCCCCCCCC(O)=O,385.0
undecanoic acid,CCCCCCCCCCC(O)=O,301.6
undecanolactone,O=C1CCCCCCCCCCO1,275.3
urea,NC(N)=O,408.1
vinyl acetate,CC(=O)OC=C,180.6
vinyl chloride,ClC=C,119.3
xanthene,C1c2ccccc2Oc3ccccc13,373.7
xanthone,O=C1c2ccccc2Oc3ccccc13,449.7
XMC,CNC(=O)Oc1cc(C)cc(C)c1,372.2
Xylylcarb,CNC(=O)Oc1ccc(C)c(C)c1,352.7
Z-3-chloro-2-butenoic acid,CC(/Cl)=C/C(O)=O,366.8